 Entering Gaussian System, Link 0=g16
 Input=1naphth_idp_1_1_m062x.com
 Output=1naphth_idp_1_1_m062x.log
 Initial command:
 /arc/software/Gaussian/g16.c01/l1.exe "/tmp/Gau-60277.inp" -scrdir="/tmp/"
 Entering Link 1 = /arc/software/Gaussian/g16.c01/l1.exe PID=     60278.
  
 Copyright (c) 1988-2019, Gaussian, Inc.  All Rights Reserved.
  
 This is part of the Gaussian(R) 16 program.  It is based on
 the Gaussian(R) 09 system (copyright 2009, Gaussian, Inc.),
 the Gaussian(R) 03 system (copyright 2003, Gaussian, Inc.),
 the Gaussian(R) 98 system (copyright 1998, Gaussian, Inc.),
 the Gaussian(R) 94 system (copyright 1995, Gaussian, Inc.),
 the Gaussian 92(TM) system (copyright 1992, Gaussian, Inc.),
 the Gaussian 90(TM) system (copyright 1990, Gaussian, Inc.),
 the Gaussian 88(TM) system (copyright 1988, Gaussian, Inc.),
 the Gaussian 86(TM) system (copyright 1986, Carnegie Mellon
 University), and the Gaussian 82(TM) system (copyright 1983,
 Carnegie Mellon University). Gaussian is a federally registered
 trademark of Gaussian, Inc.
  
 This software contains proprietary and confidential information,
 including trade secrets, belonging to Gaussian, Inc.
  
 This software is provided under written license and may be
 used, copied, transmitted, or stored only in accord with that
 written license.
  
 The following legend is applicable only to US Government
 contracts under FAR:
  
                    RESTRICTED RIGHTS LEGEND
  
 Use, reproduction and disclosure by the US Government is
 subject to restrictions as set forth in subparagraphs (a)
 and (c) of the Commercial Computer Software - Restricted
 Rights clause in FAR 52.227-19.
  
 Gaussian, Inc.
 340 Quinnipiac St., Bldg. 40, Wallingford CT 06492
  
  
 ---------------------------------------------------------------
 Warning -- This program may not be used in any manner that
 competes with the business of Gaussian, Inc. or will provide
 assistance to any competitor of Gaussian, Inc.  The licensee
 of this program is prohibited from giving any competitor of
 Gaussian, Inc. access to this program.  By using this program,
 the user acknowledges that Gaussian, Inc. is engaged in the
 business of creating and licensing software in the field of
 computational chemistry and represents and warrants to the
 licensee that it is not a competitor of Gaussian, Inc. and that
 it will not use this program in any manner prohibited above.
 ---------------------------------------------------------------
  

 Cite this work as:
 Gaussian 16, Revision C.01,
 M. J. Frisch, G. W. Trucks, H. B. Schlegel, G. E. Scuseria, 
 M. A. Robb, J. R. Cheeseman, G. Scalmani, V. Barone, 
 G. A. Petersson, H. Nakatsuji, X. Li, M. Caricato, A. V. Marenich, 
 J. Bloino, B. G. Janesko, R. Gomperts, B. Mennucci, H. P. Hratchian, 
 J. V. Ortiz, A. F. Izmaylov, J. L. Sonnenberg, D. Williams-Young, 
 F. Ding, F. Lipparini, F. Egidi, J. Goings, B. Peng, A. Petrone, 
 T. Henderson, D. Ranasinghe, V. G. Zakrzewski, J. Gao, N. Rega, 
 G. Zheng, W. Liang, M. Hada, M. Ehara, K. Toyota, R. Fukuda, 
 J. Hasegawa, M. Ishida, T. Nakajima, Y. Honda, O. Kitao, H. Nakai, 
 T. Vreven, K. Throssell, J. A. Montgomery, Jr., J. E. Peralta, 
 F. Ogliaro, M. J. Bearpark, J. J. Heyd, E. N. Brothers, K. N. Kudin, 
 V. N. Staroverov, T. A. Keith, R. Kobayashi, J. Normand, 
 K. Raghavachari, A. P. Rendell, J. C. Burant, S. S. Iyengar, 
 J. Tomasi, M. Cossi, J. M. Millam, M. Klene, C. Adamo, R. Cammi, 
 J. W. Ochterski, R. L. Martin, K. Morokuma, O. Farkas, 
 J. B. Foresman, and D. J. Fox, Gaussian, Inc., Wallingford CT, 2019.
 
 ******************************************
 Gaussian 16:  ES64L-G16RevC.01  3-Jul-2019
                31-Oct-2023 
 ******************************************
 %nprocshared=32
 Will use up to   32 processors via shared memory.
 %mem=8000MB
 %chk=1naphth_idp_1_1_m062x.chk
 -----------------------------------------
 # opt freq=noraman m062x def2tzvp pop=nbo
 -----------------------------------------
 1/18=20,19=15,26=3,38=1/1,3;
 2/9=110,12=2,17=6,18=5,40=1/2;
 3/5=44,7=101,11=2,25=1,30=1,71=1,74=-55/1,2,3;
 4//1;
 5/5=2,38=5/2;
 6/7=2,8=2,9=2,10=2,28=1,40=1/1,7;
 7//1,2,3,16;
 1/18=20,19=15,26=3/3(2);
 2/9=110/2;
 99//99;
 2/9=110/2;
 3/5=44,7=101,11=2,25=1,30=1,71=1,74=-55/1,2,3;
 4/5=5,16=3,69=1/1;
 5/5=2,38=5/2;
 7//1,2,3,16;
 1/18=20,19=15,26=3/3(-5);
 2/9=110/2;
 6/7=2,8=2,9=2,10=2,19=2,28=1,40=1/1,7;
 99/9=1/99;
 ------------
 Structure697
 ------------
 Symbolic Z-matrix:
 Charge =  0 Multiplicity = 1
 C                     0.0773    0.1704    0.2259 
 C                    -0.594    -0.7444    1.0437 
 C                    -1.9715   -0.7047    1.2132 
 C                     1.5648    0.0842    0.1414 
 C                     2.1832   -1.1226   -0.2059 
 C                     3.5714   -1.2139   -0.2738 
 C                     4.35     -0.0956    0.014 
 C                     3.7513    1.1099    0.3712 
 C                     2.3628    1.1959    0.4368 
 H                    -0.0274   -1.4917    1.5805 
 H                    -2.451    -1.4226    1.8627 
 H                     1.5812   -1.9902   -0.4351 
 H                     4.0407   -2.1473   -0.5491 
 H                     5.4273   -0.1648   -0.037 
 H                     4.3594    1.9728    0.601 
 H                     1.8993    2.128     0.7276 
 C                    -2.7321    0.2576    0.5626 
 H                    -3.8031    0.2872    0.7013 
 C                    -0.6944    1.1578   -0.4789 
 C                    -2.1147    1.1986   -0.2932 
 C                    -2.8842    2.1752   -0.9741 
 C                    -2.2736    3.0832   -1.8329 
 C                    -0.9012    3.0398   -2.0402 
 C                    -0.1166    2.0956   -1.3835 
 H                    -3.9539    2.206    -0.8266 
 H                    -2.8703    3.8209   -2.35 
 H                    -0.4403    3.7413   -2.7207 
 H                     0.9445    2.0692   -1.5785 
 

 GradGradGradGradGradGradGradGradGradGradGradGradGradGradGradGradGradGrad
 Berny optimization.
 Initialization pass.
                           ----------------------------
                           !    Initial Parameters    !
                           ! (Angstroms and Degrees)  !
 --------------------------                            --------------------------
 ! Name  Definition              Value          Derivative Info.                !
 --------------------------------------------------------------------------------
 ! R1    R(1,2)                  1.3987         estimate D2E/DX2                !
 ! R2    R(1,4)                  1.4924         estimate D2E/DX2                !
 ! R3    R(1,19)                 1.4378         estimate D2E/DX2                !
 ! R4    R(2,3)                  1.3885         estimate D2E/DX2                !
 ! R5    R(2,10)                 1.0806         estimate D2E/DX2                !
 ! R6    R(3,11)                 1.0803         estimate D2E/DX2                !
 ! R7    R(3,17)                 1.3885         estimate D2E/DX2                !
 ! R8    R(4,5)                  1.3998         estimate D2E/DX2                !
 ! R9    R(4,9)                  1.4            estimate D2E/DX2                !
 ! R10   R(5,6)                  1.3929         estimate D2E/DX2                !
 ! R11   R(5,12)                 1.0806         estimate D2E/DX2                !
 ! R12   R(6,7)                  1.3927         estimate D2E/DX2                !
 ! R13   R(6,13)                 1.0804         estimate D2E/DX2                !
 ! R14   R(7,8)                  1.3926         estimate D2E/DX2                !
 ! R15   R(7,14)                 1.0807         estimate D2E/DX2                !
 ! R16   R(8,9)                  1.3927         estimate D2E/DX2                !
 ! R17   R(8,15)                 1.0804         estimate D2E/DX2                !
 ! R18   R(9,16)                 1.0808         estimate D2E/DX2                !
 ! R19   R(17,18)                1.0803         estimate D2E/DX2                !
 ! R20   R(17,20)                1.4139         estimate D2E/DX2                !
 ! R21   R(19,20)                1.433          estimate D2E/DX2                !
 ! R22   R(19,24)                1.4254         estimate D2E/DX2                !
 ! R23   R(20,21)                1.4176         estimate D2E/DX2                !
 ! R24   R(21,22)                1.391          estimate D2E/DX2                !
 ! R25   R(21,25)                1.0803         estimate D2E/DX2                !
 ! R26   R(22,23)                1.3886         estimate D2E/DX2                !
 ! R27   R(22,26)                1.0806         estimate D2E/DX2                !
 ! R28   R(23,24)                1.3923         estimate D2E/DX2                !
 ! R29   R(23,27)                1.0806         estimate D2E/DX2                !
 ! R30   R(24,28)                1.0792         estimate D2E/DX2                !
 ! A1    A(2,1,4)              118.2753         estimate D2E/DX2                !
 ! A2    A(2,1,19)             118.5666         estimate D2E/DX2                !
 ! A3    A(4,1,19)             123.1533         estimate D2E/DX2                !
 ! A4    A(1,2,3)              121.9273         estimate D2E/DX2                !
 ! A5    A(1,2,10)             119.4141         estimate D2E/DX2                !
 ! A6    A(3,2,10)             118.6424         estimate D2E/DX2                !
 ! A7    A(2,3,11)             119.6519         estimate D2E/DX2                !
 ! A8    A(2,3,17)             120.4039         estimate D2E/DX2                !
 ! A9    A(11,3,17)            119.942          estimate D2E/DX2                !
 ! A10   A(1,4,5)              120.2769         estimate D2E/DX2                !
 ! A11   A(1,4,9)              120.6857         estimate D2E/DX2                !
 ! A12   A(5,4,9)              119.0214         estimate D2E/DX2                !
 ! A13   A(4,5,6)              120.5914         estimate D2E/DX2                !
 ! A14   A(4,5,12)             119.9147         estimate D2E/DX2                !
 ! A15   A(6,5,12)             119.4902         estimate D2E/DX2                !
 ! A16   A(5,6,7)              119.6353         estimate D2E/DX2                !
 ! A17   A(5,6,13)             120.1308         estimate D2E/DX2                !
 ! A18   A(7,6,13)             120.2339         estimate D2E/DX2                !
 ! A19   A(6,7,8)              120.5143         estimate D2E/DX2                !
 ! A20   A(6,7,14)             119.7434         estimate D2E/DX2                !
 ! A21   A(8,7,14)             119.742          estimate D2E/DX2                !
 ! A22   A(7,8,9)              119.6145         estimate D2E/DX2                !
 ! A23   A(7,8,15)             120.264          estimate D2E/DX2                !
 ! A24   A(9,8,15)             120.1208         estimate D2E/DX2                !
 ! A25   A(4,9,8)              120.6181         estimate D2E/DX2                !
 ! A26   A(4,9,16)             119.8109         estimate D2E/DX2                !
 ! A27   A(8,9,16)             119.5686         estimate D2E/DX2                !
 ! A28   A(3,17,18)            120.1253         estimate D2E/DX2                !
 ! A29   A(3,17,20)            120.3767         estimate D2E/DX2                !
 ! A30   A(18,17,20)           119.4962         estimate D2E/DX2                !
 ! A31   A(1,19,20)            119.21           estimate D2E/DX2                !
 ! A32   A(1,19,24)            123.0502         estimate D2E/DX2                !
 ! A33   A(20,19,24)           117.7298         estimate D2E/DX2                !
 ! A34   A(17,20,19)           119.4918         estimate D2E/DX2                !
 ! A35   A(17,20,21)           120.811          estimate D2E/DX2                !
 ! A36   A(19,20,21)           119.6961         estimate D2E/DX2                !
 ! A37   A(20,21,22)           120.5297         estimate D2E/DX2                !
 ! A38   A(20,21,25)           119.4446         estimate D2E/DX2                !
 ! A39   A(22,21,25)           120.0244         estimate D2E/DX2                !
 ! A40   A(21,22,23)           120.3712         estimate D2E/DX2                !
 ! A41   A(21,22,26)           119.9138         estimate D2E/DX2                !
 ! A42   A(23,22,26)           119.7122         estimate D2E/DX2                !
 ! A43   A(22,23,24)           120.5132         estimate D2E/DX2                !
 ! A44   A(22,23,27)           119.6876         estimate D2E/DX2                !
 ! A45   A(24,23,27)           119.7984         estimate D2E/DX2                !
 ! A46   A(19,24,23)           121.1387         estimate D2E/DX2                !
 ! A47   A(19,24,28)           119.8122         estimate D2E/DX2                !
 ! A48   A(23,24,28)           119.0427         estimate D2E/DX2                !
 ! D1    D(4,1,2,3)            177.8065         estimate D2E/DX2                !
 ! D2    D(4,1,2,10)            -0.7093         estimate D2E/DX2                !
 ! D3    D(19,1,2,3)            -1.4225         estimate D2E/DX2                !
 ! D4    D(19,1,2,10)         -179.9383         estimate D2E/DX2                !
 ! D5    D(2,1,4,5)             54.1338         estimate D2E/DX2                !
 ! D6    D(2,1,4,9)           -124.3942         estimate D2E/DX2                !
 ! D7    D(19,1,4,5)          -126.675          estimate D2E/DX2                !
 ! D8    D(19,1,4,9)            54.797          estimate D2E/DX2                !
 ! D9    D(2,1,19,20)            1.7663         estimate D2E/DX2                !
 ! D10   D(2,1,19,24)         -177.049          estimate D2E/DX2                !
 ! D11   D(4,1,19,20)         -177.4226         estimate D2E/DX2                !
 ! D12   D(4,1,19,24)            3.762          estimate D2E/DX2                !
 ! D13   D(1,2,3,11)          -179.3036         estimate D2E/DX2                !
 ! D14   D(1,2,3,17)             0.1527         estimate D2E/DX2                !
 ! D15   D(10,2,3,11)           -0.7767         estimate D2E/DX2                !
 ! D16   D(10,2,3,17)          178.6796         estimate D2E/DX2                !
 ! D17   D(2,3,17,18)         -179.7176         estimate D2E/DX2                !
 ! D18   D(2,3,17,20)            0.7709         estimate D2E/DX2                !
 ! D19   D(11,3,17,18)          -0.2628         estimate D2E/DX2                !
 ! D20   D(11,3,17,20)        -179.7743         estimate D2E/DX2                !
 ! D21   D(1,4,5,6)           -179.3609         estimate D2E/DX2                !
 ! D22   D(1,4,5,12)             1.3468         estimate D2E/DX2                !
 ! D23   D(9,4,5,6)             -0.8085         estimate D2E/DX2                !
 ! D24   D(9,4,5,12)           179.8992         estimate D2E/DX2                !
 ! D25   D(1,4,9,8)            179.3169         estimate D2E/DX2                !
 ! D26   D(1,4,9,16)            -0.1114         estimate D2E/DX2                !
 ! D27   D(5,4,9,8)              0.7706         estimate D2E/DX2                !
 ! D28   D(5,4,9,16)          -178.6577         estimate D2E/DX2                !
 ! D29   D(4,5,6,7)              0.3612         estimate D2E/DX2                !
 ! D30   D(4,5,6,13)          -179.5884         estimate D2E/DX2                !
 ! D31   D(12,5,6,7)           179.6565         estimate D2E/DX2                !
 ! D32   D(12,5,6,13)           -0.293          estimate D2E/DX2                !
 ! D33   D(5,6,7,8)              0.1368         estimate D2E/DX2                !
 ! D34   D(5,6,7,14)           179.9275         estimate D2E/DX2                !
 ! D35   D(13,6,7,8)          -179.9136         estimate D2E/DX2                !
 ! D36   D(13,6,7,14)           -0.123          estimate D2E/DX2                !
 ! D37   D(6,7,8,9)             -0.1744         estimate D2E/DX2                !
 ! D38   D(6,7,8,15)           179.5291         estimate D2E/DX2                !
 ! D39   D(14,7,8,9)          -179.9651         estimate D2E/DX2                !
 ! D40   D(14,7,8,15)           -0.2615         estimate D2E/DX2                !
 ! D41   D(7,8,9,4)             -0.2855         estimate D2E/DX2                !
 ! D42   D(7,8,9,16)           179.1442         estimate D2E/DX2                !
 ! D43   D(15,8,9,4)          -179.9895         estimate D2E/DX2                !
 ! D44   D(15,8,9,16)           -0.5598         estimate D2E/DX2                !
 ! D45   D(3,17,20,19)          -0.3785         estimate D2E/DX2                !
 ! D46   D(3,17,20,21)         179.2632         estimate D2E/DX2                !
 ! D47   D(18,17,20,19)       -179.8931         estimate D2E/DX2                !
 ! D48   D(18,17,20,21)         -0.2514         estimate D2E/DX2                !
 ! D49   D(1,19,20,17)          -0.8944         estimate D2E/DX2                !
 ! D50   D(1,19,20,21)         179.4599         estimate D2E/DX2                !
 ! D51   D(24,19,20,17)        177.9839         estimate D2E/DX2                !
 ! D52   D(24,19,20,21)         -1.6618         estimate D2E/DX2                !
 ! D53   D(1,19,24,23)        -179.6779         estimate D2E/DX2                !
 ! D54   D(1,19,24,28)           1.2512         estimate D2E/DX2                !
 ! D55   D(20,19,24,23)          1.4902         estimate D2E/DX2                !
 ! D56   D(20,19,24,28)       -177.5806         estimate D2E/DX2                !
 ! D57   D(17,20,21,22)       -178.8634         estimate D2E/DX2                !
 ! D58   D(17,20,21,25)          0.7193         estimate D2E/DX2                !
 ! D59   D(19,20,21,22)          0.7776         estimate D2E/DX2                !
 ! D60   D(19,20,21,25)       -179.6398         estimate D2E/DX2                !
 ! D61   D(20,21,22,23)          0.3559         estimate D2E/DX2                !
 ! D62   D(20,21,22,26)        179.7485         estimate D2E/DX2                !
 ! D63   D(25,21,22,23)       -179.2243         estimate D2E/DX2                !
 ! D64   D(25,21,22,26)          0.1682         estimate D2E/DX2                !
 ! D65   D(21,22,23,24)         -0.5542         estimate D2E/DX2                !
 ! D66   D(21,22,23,27)        179.1176         estimate D2E/DX2                !
 ! D67   D(26,22,23,24)       -179.948          estimate D2E/DX2                !
 ! D68   D(26,22,23,27)         -0.2762         estimate D2E/DX2                !
 ! D69   D(22,23,24,19)         -0.3977         estimate D2E/DX2                !
 ! D70   D(22,23,24,28)        178.6801         estimate D2E/DX2                !
 ! D71   D(27,23,24,19)        179.9308         estimate D2E/DX2                !
 ! D72   D(27,23,24,28)         -0.9913         estimate D2E/DX2                !
 --------------------------------------------------------------------------------
 Trust Radius=3.00D-01 FncErr=1.00D-07 GrdErr=1.00D-06 EigMax=2.50D+02 EigMin=1.00D-04
 Number of steps in this run=    160 maximum allowed number of steps=    168.
 GradGradGradGradGradGradGradGradGradGradGradGradGradGradGradGradGradGrad

                          Input orientation:                          
 ---------------------------------------------------------------------
 Center     Atomic      Atomic             Coordinates (Angstroms)
 Number     Number       Type             X           Y           Z
 ---------------------------------------------------------------------
      1          6           0        0.077300    0.170400    0.225900
      2          6           0       -0.594000   -0.744400    1.043700
      3          6           0       -1.971500   -0.704700    1.213200
      4          6           0        1.564800    0.084200    0.141400
      5          6           0        2.183200   -1.122600   -0.205900
      6          6           0        3.571400   -1.213900   -0.273800
      7          6           0        4.350000   -0.095600    0.014000
      8          6           0        3.751300    1.109900    0.371200
      9          6           0        2.362800    1.195900    0.436800
     10          1           0       -0.027400   -1.491700    1.580500
     11          1           0       -2.451000   -1.422600    1.862700
     12          1           0        1.581200   -1.990200   -0.435100
     13          1           0        4.040700   -2.147300   -0.549100
     14          1           0        5.427300   -0.164800   -0.037000
     15          1           0        4.359400    1.972800    0.601000
     16          1           0        1.899300    2.128000    0.727600
     17          6           0       -2.732100    0.257600    0.562600
     18          1           0       -3.803100    0.287200    0.701300
     19          6           0       -0.694400    1.157800   -0.478900
     20          6           0       -2.114700    1.198600   -0.293200
     21          6           0       -2.884200    2.175200   -0.974100
     22          6           0       -2.273600    3.083200   -1.832900
     23          6           0       -0.901200    3.039800   -2.040200
     24          6           0       -0.116600    2.095600   -1.383500
     25          1           0       -3.953900    2.206000   -0.826600
     26          1           0       -2.870300    3.820900   -2.350000
     27          1           0       -0.440300    3.741300   -2.720700
     28          1           0        0.944500    2.069200   -1.578500
 ---------------------------------------------------------------------
                    Distance matrix (angstroms):
                    1          2          3          4          5
     1  C    0.000000
     2  C    1.398678   0.000000
     3  C    2.436830   1.388457   0.000000
     4  C    1.492390   2.482165   3.778430   0.000000
     5  C    2.508608   3.068774   4.410217   1.399786   0.000000
     6  C    3.791401   4.393950   5.761440   2.425675   1.392855
     7  C    4.286213   5.091597   6.463006   2.793904   2.407926
     8  C    3.795003   4.772035   6.062357   2.426036   2.788555
     9  C    2.513889   3.588281   4.795960   1.399979   2.412625
    10  H    2.146737   1.080577   2.129273   2.662625   2.866045
    11  H    3.407208   2.139898   1.080348   4.621685   5.083789
    12  H    2.714190   2.910389   4.122024   2.153081   1.080586
    13  H    4.656275   5.097606   6.429101   3.403889   2.148977
    14  H    5.366934   6.144909   7.523080   3.874627   3.386753
    15  H    4.661086   5.667039   6.901021   3.404090   3.868906
    16  H    2.720953   3.816693   4.821109   2.152357   3.393880
    17  C    2.830848   2.409758   1.388457   4.320975   5.162918
    18  H    3.911157   3.388179   2.144916   5.400838   6.216618
    19  C    1.437784   2.438597   2.821895   2.577086   3.681757
    20  C    2.476191   2.806257   2.431522   3.869042   4.885441
    21  C    3.772228   4.223813   3.729762   5.040855   6.094601
    22  C    4.271978   5.074092   4.870131   5.255966   6.340264
    23  C    3.784987   4.891317   5.074587   4.424489   5.495794
    24  C    2.516776   3.766273   4.245608   3.032846   4.127061
    25  H    4.637025   4.846835   4.069750   5.991253   7.009197
    26  H    5.352547   6.127047   5.829690   6.311902   7.387369
    27  H    4.658507   5.857972   6.130829   5.058302   6.071614
    28  H    2.759228   4.142374   4.898078   2.698713   3.688631
                    6          7          8          9         10
     6  C    0.000000
     7  C    1.392710   0.000000
     8  C    2.418354   1.392575   0.000000
     9  C    2.787975   2.407425   1.392707   0.000000
    10  H    4.057951   4.854343   4.744397   3.774162   0.000000
    11  H    6.393551   7.171626   6.863429   5.662367   2.440952
    12  H    2.142325   3.384886   3.869118   3.394457   2.626545
    13  H    1.080402   2.149935   3.397066   3.868376   4.638367
    14  H    2.145006   1.080724   2.144869   3.386318   5.842150
    15  H    3.397245   2.150101   1.080366   2.148708   5.675050
    16  H    3.868723   3.385196   2.143234   1.080836   4.188298
    17  C    6.526790   7.112092   6.541982   5.182108   3.378102
    18  H    7.588634   8.190968   7.606232   6.238110   4.265371
    19  C    4.885087   5.221105   4.526501   3.191619   3.421384
    20  C    6.176752   6.600127   5.904172   4.536619   3.886552
    21  C    7.324697   7.646341   6.853799   5.520931   5.304097
    22  C    7.420235   7.575479   6.712033   5.496330   6.134038
    23  C    6.420147   6.451788   5.584364   4.493238   5.865790
    24  C    5.077949   5.167676   4.360187   3.204743   4.654243
    25  H    8.284410   8.657871   7.874406   6.520520   5.906312
    26  H    8.435361   8.547526   7.655066   6.483997   7.194069
    27  H    6.828987   6.719179   5.835548   4.930136   6.786391
    28  H    4.402453   4.338185   3.549607   2.614510   4.858382
                   11         12         13         14         15
    11  H    0.000000
    12  H    4.675542   0.000000
    13  H    6.963055   2.467147   0.000000
    14  H    8.201130   4.275869   2.472896   0.000000
    15  H    7.713765   4.949471   4.289467   2.473214   0.000000
    16  H    5.728902   4.290994   4.949116   4.276486   2.468240
    17  C    2.142977   4.965135   7.272568   8.192298   7.296078
    18  H    2.469907   5.955556   8.307556   9.270905   8.335329
    19  C    3.902204   3.884608   5.774927   6.278516   5.231759
    20  C    3.410527   4.883468   7.010669   7.668524   6.581257
    21  C    4.602093   6.130324   8.174281   8.685320   7.415635
    22  C    5.830194   6.523244   8.299196   8.548603   7.152171
    23  C    6.127603   5.834343   7.317907   7.371037   5.982336
    24  C    5.325877   4.525014   5.998464   6.136554   4.897744
    25  H    4.760019   6.956917   9.107242   9.708299   8.438210
    26  H    6.739210   7.566477   9.307232   9.491361   8.024490
    27  H    7.191407   6.493113   7.711732   7.542453   6.099049
    28  H    5.963551   4.265147   5.331509   5.240465   4.052290
                   16         17         18         19         20
    16  H    0.000000
    17  C    4.997548   0.000000
    18  H    5.992212   1.080349   0.000000
    19  C    3.020631   2.459127   3.437271   0.000000
    20  C    4.244763   1.413880   2.161105   1.432969   0.000000
    21  C    5.077389   2.462066   2.686240   2.464863   1.417569
    22  C    4.988152   3.732648   4.071751   2.834494   2.438779
    23  C    4.041645   4.226985   4.849088   2.454047   2.813291
    24  C    2.919186   3.742511   4.605104   1.425350   2.446583
    25  H    6.056531   2.686807   2.457440   3.441505   2.163799
    26  H    5.923396   4.604285   4.761049   3.915055   3.417282
    27  H    4.468472   5.307407   5.911795   3.429972   3.893802
    28  H    2.496637   4.624240   5.559921   2.173882   3.430546
                   21         22         23         24         25
    21  C    0.000000
    22  C    1.390983   0.000000
    23  C    2.411720   1.388646   0.000000
    24  C    2.798849   2.414532   1.392252   0.000000
    25  H    1.080261   2.146049   3.389251   3.879072   0.000000
    26  H    2.145139   1.080576   2.140899   3.390228   2.470392
    27  H    3.387614   2.140625   1.080561   2.145044   4.276698
    28  H    3.877561   3.383649   2.135846   1.079192   4.957660
                   26         27         28
    26  H    0.000000
    27  H    2.459401   0.000000
    28  H    4.268063   2.453204   0.000000
 Stoichiometry    C16H12
 Framework group  C1[X(C16H12)]
 Deg. of freedom    78
 Full point group                 C1      NOp   1
 Largest Abelian subgroup         C1      NOp   1
 Largest concise Abelian subgroup C1      NOp   1
                         Standard orientation:                         
 ---------------------------------------------------------------------
 Center     Atomic      Atomic             Coordinates (Angstroms)
 Number     Number       Type             X           Y           Z
 ---------------------------------------------------------------------
      1          6           0       -0.086368    0.729669    0.057041
      2          6           0        0.138237    2.102768    0.200051
      3          6           0        1.419097    2.633345    0.275524
      4          6           0       -1.496864    0.242625    0.034357
      5          6           0       -2.415316    0.782266   -0.873738
      6          6           0       -3.736627    0.341968   -0.891652
      7          6           0       -4.147989   -0.638693    0.007639
      8          6           0       -3.249776   -1.178813    0.924563
      9          6           0       -1.929566   -0.735524    0.937649
     10          1           0       -0.705574    2.773227    0.278248
     11          1           0        1.549950    3.698810    0.397229
     12          1           0       -2.097288    1.539239   -1.576245
     13          1           0       -4.437650    0.758888   -1.600180
     14          1           0       -5.173083   -0.980765   -0.003948
     15          1           0       -3.575109   -1.933910    1.625402
     16          1           0       -1.236517   -1.145192    1.658802
     17          6           0        2.529163    1.802171    0.206839
     18          1           0        3.523675    2.219345    0.270612
     19          6           0        1.049555   -0.145940   -0.044014
     20          6           0        2.368674    0.407030    0.042875
     21          6           0        3.495806   -0.448271   -0.043932
     22          6           0        3.331540   -1.817092   -0.228807
     23          6           0        2.059449   -2.363122   -0.338233
     24          6           0        0.931843   -1.550955   -0.253060
     25          1           0        4.488279   -0.027800    0.027937
     26          1           0        4.197800   -2.459350   -0.297676
     27          1           0        1.945027   -3.425965   -0.495982
     28          1           0       -0.044659   -1.997110   -0.362808
 ---------------------------------------------------------------------
 Rotational constants (GHZ):           1.0698528           0.3760735           0.2964028
 Standard basis: def2TZVP (5D, 7F)
 There are   648 symmetry adapted cartesian basis functions of A   symmetry.
 There are   568 symmetry adapted basis functions of A   symmetry.
   568 basis functions,   912 primitive gaussians,   648 cartesian basis functions
    54 alpha electrons       54 beta electrons
       nuclear repulsion energy       952.9566162261 Hartrees.
 NAtoms=   28 NActive=   28 NUniq=   28 SFac= 1.00D+00 NAtFMM=   60 NAOKFM=F Big=F
 Integral buffers will be    131072 words long.
 Raffenetti 2 integral format.
 Two-electron integral symmetry is turned on.
 One-electron integrals computed using PRISM.
   1 Symmetry operations used in ECPInt.
 ECPInt:  NShTT=   25200 NPrTT=   77416 LenC2=   23158 LenP2D=   52541.
 LDataN:  DoStor=T MaxTD1= 6 Len=  172
 NBasis=   568 RedAO= T EigKep=  5.00D-06  NBF=   568
 NBsUse=   568 1.00D-06 EigRej= -1.00D+00 NBFU=   568
 ExpMin= 9.52D-02 ExpMax= 1.36D+04 ExpMxC= 4.63D+02 IAcc=3 IRadAn=         5 AccDes= 0.00D+00
 Harris functional with IExCor= 1009 and IRadAn=       5 diagonalized for initial guess.
 HarFok:  IExCor= 1009 AccDes= 0.00D+00 IRadAn=         5 IDoV= 1 UseB2=F ITyADJ=14
 ICtDFT=  3500011 ScaDFX=  1.000000  1.000000  1.000000  1.000000
 FoFCou: FMM=F IPFlag=           0 FMFlag=      100000 FMFlg1=           0
         NFxFlg=           0 DoJE=T BraDBF=F KetDBF=T FulRan=T
         wScrn=  0.000000 ICntrl=       500 IOpCl=  0 I1Cent=   200000004 NGrid=           0
         NMat0=    1 NMatS0=      1 NMatT0=    0 NMatD0=    1 NMtDS0=    0 NMtDT0=    0
 Petite list used in FoFCou.
 Requested convergence on RMS density matrix=1.00D-08 within 128 cycles.
 Requested convergence on MAX density matrix=1.00D-06.
 Requested convergence on             energy=1.00D-06.
 No special actions if energy rises.
 Integral accuracy reduced to 1.0D-05 until final iterations.
 Rare condition: small coef for last iteration:  0.000D+00
 Rare condition: small coef for last iteration:  0.000D+00
 Rare condition: small coef for last iteration:  0.000D+00
 Rare condition: small coef for last iteration:  0.000D+00
 EnCoef did     1 forward-backward iterations
 EnCoef did     7 forward-backward iterations
 Rare condition: small coef for last iteration:  0.000D+00
 Rare condition: small coef for last iteration:  0.000D+00
 Rare condition: small coef for last iteration:  0.000D+00
 Problem detected with inexpensive integrals.
 Switching to full accuracy and repeating last cycle.
 SCF Done:  E(RM062X) =  -616.897230234     A.U. after   27 cycles
            NFock= 27  Conv=0.71D-08     -V/T= 2.0054

 **********************************************************************

            Population analysis using the SCF Density.

 **********************************************************************

 Orbital symmetries:
       Occupied  (A) (A) (A) (A) (A) (A) (A) (A) (A) (A) (A) (A)
                 (A) (A) (A) (A) (A) (A) (A) (A) (A) (A) (A) (A)
                 (A) (A) (A) (A) (A) (A) (A) (A) (A) (A) (A) (A)
                 (A) (A) (A) (A) (A) (A) (A) (A) (A) (A) (A) (A)
                 (A) (A) (A) (A) (A) (A)
       Virtual   (A) (A) (A) (A) (A) (A) (A) (A) (A) (A) (A) (A)
                 (A) (A) (A) (A) (A) (A) (A) (A) (A) (A) (A) (A)
                 (A) (A) (A) (A) (A) (A) (A) (A) (A) (A) (A) (A)
                 (A) (A) (A) (A) (A) (A) (A) (A) (A) (A) (A) (A)
                 (A) (A) (A) (A) (A) (A) (A) (A) (A) (A) (A) (A)
                 (A) (A) (A) (A) (A) (A) (A) (A) (A) (A) (A) (A)
                 (A) (A) (A) (A) (A) (A) (A) (A) (A) (A) (A) (A)
                 (A) (A) (A) (A) (A) (A) (A) (A) (A) (A) (A) (A)
                 (A) (A) (A) (A) (A) (A) (A) (A) (A) (A) (A) (A)
                 (A) (A) (A) (A) (A) (A) (A) (A) (A) (A) (A) (A)
                 (A) (A) (A) (A) (A) (A) (A) (A) (A) (A) (A) (A)
                 (A) (A) (A) (A) (A) (A) (A) (A) (A) (A) (A) (A)
                 (A) (A) (A) (A) (A) (A) (A) (A) (A) (A) (A) (A)
                 (A) (A) (A) (A) (A) (A) (A) (A) (A) (A) (A) (A)
                 (A) (A) (A) (A) (A) (A) (A) (A) (A) (A) (A) (A)
                 (A) (A) (A) (A) (A) (A) (A) (A) (A) (A) (A) (A)
                 (A) (A) (A) (A) (A) (A) (A) (A) (A) (A) (A) (A)
                 (A) (A) (A) (A) (A) (A) (A) (A) (A) (A) (A) (A)
                 (A) (A) (A) (A) (A) (A) (A) (A) (A) (A) (A) (A)
                 (A) (A) (A) (A) (A) (A) (A) (A) (A) (A) (A) (A)
                 (A) (A) (A) (A) (A) (A) (A) (A) (A) (A) (A) (A)
                 (A) (A) (A) (A) (A) (A) (A) (A) (A) (A) (A) (A)
                 (A) (A) (A) (A) (A) (A) (A) (A) (A) (A) (A) (A)
                 (A) (A) (A) (A) (A) (A) (A) (A) (A) (A) (A) (A)
                 (A) (A) (A) (A) (A) (A) (A) (A) (A) (A) (A) (A)
                 (A) (A) (A) (A) (A) (A) (A) (A) (A) (A) (A) (A)
                 (A) (A) (A) (A) (A) (A) (A) (A) (A) (A) (A) (A)
                 (A) (A) (A) (A) (A) (A) (A) (A) (A) (A) (A) (A)
                 (A) (A) (A) (A) (A) (A) (A) (A) (A) (A) (A) (A)
                 (A) (A) (A) (A) (A) (A) (A) (A) (A) (A) (A) (A)
                 (A) (A) (A) (A) (A) (A) (A) (A) (A) (A) (A) (A)
                 (A) (A) (A) (A) (A) (A) (A) (A) (A) (A) (A) (A)
                 (A) (A) (A) (A) (A) (A) (A) (A) (A) (A) (A) (A)
                 (A) (A) (A) (A) (A) (A) (A) (A) (A) (A) (A) (A)
                 (A) (A) (A) (A) (A) (A) (A) (A) (A) (A) (A) (A)
                 (A) (A) (A) (A) (A) (A) (A) (A) (A) (A) (A) (A)
                 (A) (A) (A) (A) (A) (A) (A) (A) (A) (A) (A) (A)
                 (A) (A) (A) (A) (A) (A) (A) (A) (A) (A) (A) (A)
                 (A) (A) (A) (A) (A) (A) (A) (A) (A) (A) (A) (A)
                 (A) (A) (A) (A) (A) (A) (A) (A) (A) (A) (A) (A)
                 (A) (A) (A) (A) (A) (A) (A) (A) (A) (A) (A) (A)
                 (A) (A) (A) (A) (A) (A) (A) (A) (A) (A) (A) (A)
                 (A) (A) (A) (A) (A) (A) (A) (A) (A) (A)
 The electronic state is 1-A.
 Alpha  occ. eigenvalues --  -10.55979 -10.55808 -10.55605 -10.55393 -10.54609
 Alpha  occ. eigenvalues --  -10.54503 -10.54494 -10.54488 -10.54481 -10.54412
 Alpha  occ. eigenvalues --  -10.54398 -10.54328 -10.54311 -10.54295 -10.54249
 Alpha  occ. eigenvalues --  -10.54228  -0.98616  -0.96296  -0.92568  -0.88610
 Alpha  occ. eigenvalues --   -0.84746  -0.84232  -0.83980  -0.80219  -0.72170
 Alpha  occ. eigenvalues --   -0.70146  -0.69814  -0.68416  -0.65714  -0.60329
 Alpha  occ. eigenvalues --   -0.58819  -0.57730  -0.56634  -0.53190  -0.52581
 Alpha  occ. eigenvalues --   -0.51124  -0.50683  -0.49157  -0.48405  -0.48078
 Alpha  occ. eigenvalues --   -0.46490  -0.46192  -0.44282  -0.43876  -0.41793
 Alpha  occ. eigenvalues --   -0.40905  -0.39664  -0.39201  -0.38355  -0.34780
 Alpha  occ. eigenvalues --   -0.31166  -0.30745  -0.30178  -0.25767
 Alpha virt. eigenvalues --   -0.02612   0.01098   0.01419   0.02122   0.05951
 Alpha virt. eigenvalues --    0.08320   0.08533   0.09373   0.10410   0.10778
 Alpha virt. eigenvalues --    0.11731   0.12494   0.12858   0.13203   0.13771
 Alpha virt. eigenvalues --    0.14042   0.15036   0.16089   0.16589   0.18178
 Alpha virt. eigenvalues --    0.19320   0.19695   0.20857   0.21303   0.21852
 Alpha virt. eigenvalues --    0.22664   0.23973   0.24130   0.24674   0.24994
 Alpha virt. eigenvalues --    0.25874   0.26486   0.26670   0.26925   0.27350
 Alpha virt. eigenvalues --    0.27998   0.28787   0.29426   0.29649   0.30164
 Alpha virt. eigenvalues --    0.31574   0.31617   0.32211   0.32496   0.33628
 Alpha virt. eigenvalues --    0.33810   0.34246   0.35209   0.36267   0.36352
 Alpha virt. eigenvalues --    0.37350   0.37597   0.38244   0.38699   0.39235
 Alpha virt. eigenvalues --    0.39622   0.40307   0.40952   0.41283   0.41934
 Alpha virt. eigenvalues --    0.42216   0.42566   0.42982   0.44271   0.44511
 Alpha virt. eigenvalues --    0.44750   0.45123   0.45131   0.45847   0.46037
 Alpha virt. eigenvalues --    0.46963   0.47618   0.48423   0.48875   0.50150
 Alpha virt. eigenvalues --    0.51178   0.51326   0.51980   0.52525   0.52909
 Alpha virt. eigenvalues --    0.53668   0.53816   0.54244   0.55533   0.55888
 Alpha virt. eigenvalues --    0.56754   0.57257   0.58150   0.59729   0.61892
 Alpha virt. eigenvalues --    0.62962   0.63432   0.64465   0.65428   0.67443
 Alpha virt. eigenvalues --    0.67886   0.69285   0.69769   0.70862   0.71321
 Alpha virt. eigenvalues --    0.72172   0.72717   0.73563   0.73666   0.74035
 Alpha virt. eigenvalues --    0.74680   0.74892   0.75548   0.76402   0.76943
 Alpha virt. eigenvalues --    0.77270   0.78211   0.78985   0.79379   0.80586
 Alpha virt. eigenvalues --    0.81697   0.83598   0.84511   0.85528   0.85753
 Alpha virt. eigenvalues --    0.86419   0.86449   0.87638   0.88690   0.89968
 Alpha virt. eigenvalues --    0.90440   0.91401   0.91822   0.92276   0.92557
 Alpha virt. eigenvalues --    0.94817   0.95032   0.96335   0.97018   0.97293
 Alpha virt. eigenvalues --    0.98587   1.00089   1.01621   1.02800   1.04321
 Alpha virt. eigenvalues --    1.04938   1.05428   1.07049   1.07566   1.10095
 Alpha virt. eigenvalues --    1.12488   1.13899   1.14841   1.15766   1.16164
 Alpha virt. eigenvalues --    1.17700   1.18333   1.18968   1.20460   1.20927
 Alpha virt. eigenvalues --    1.22329   1.23755   1.24730   1.25400   1.25576
 Alpha virt. eigenvalues --    1.26593   1.26911   1.27267   1.28017   1.28649
 Alpha virt. eigenvalues --    1.29484   1.31196   1.32073   1.33788   1.34469
 Alpha virt. eigenvalues --    1.34616   1.36413   1.36837   1.38485   1.39003
 Alpha virt. eigenvalues --    1.41314   1.42900   1.43982   1.45074   1.45892
 Alpha virt. eigenvalues --    1.46277   1.47009   1.47839   1.48961   1.50095
 Alpha virt. eigenvalues --    1.50600   1.52171   1.52857   1.53729   1.55039
 Alpha virt. eigenvalues --    1.55659   1.56868   1.57516   1.58982   1.59745
 Alpha virt. eigenvalues --    1.60199   1.60910   1.61708   1.63783   1.63820
 Alpha virt. eigenvalues --    1.64995   1.67028   1.67832   1.68506   1.69728
 Alpha virt. eigenvalues --    1.70313   1.70972   1.72063   1.72861   1.74073
 Alpha virt. eigenvalues --    1.74460   1.75276   1.75781   1.76105   1.76466
 Alpha virt. eigenvalues --    1.77366   1.77903   1.78177   1.79597   1.81187
 Alpha virt. eigenvalues --    1.83496   1.86374   1.87902   1.89247   1.89962
 Alpha virt. eigenvalues --    1.91185   1.92297   1.94730   1.95392   1.96622
 Alpha virt. eigenvalues --    1.99577   2.00204   2.02655   2.03365   2.03673
 Alpha virt. eigenvalues --    2.04666   2.06933   2.08551   2.08947   2.10601
 Alpha virt. eigenvalues --    2.11649   2.13579   2.15430   2.15756   2.15955
 Alpha virt. eigenvalues --    2.18485   2.19456   2.20853   2.21965   2.22478
 Alpha virt. eigenvalues --    2.23047   2.24643   2.25080   2.26886   2.26921
 Alpha virt. eigenvalues --    2.29045   2.29936   2.30287   2.32647   2.35956
 Alpha virt. eigenvalues --    2.36431   2.39131   2.40408   2.42482   2.44282
 Alpha virt. eigenvalues --    2.45465   2.47683   2.48555   2.48884   2.51221
 Alpha virt. eigenvalues --    2.53057   2.53209   2.56043   2.56832   2.59052
 Alpha virt. eigenvalues --    2.59722   2.60413   2.60429   2.61147   2.61829
 Alpha virt. eigenvalues --    2.62753   2.63664   2.64581   2.65282   2.66488
 Alpha virt. eigenvalues --    2.66609   2.67253   2.68074   2.69007   2.69734
 Alpha virt. eigenvalues --    2.69932   2.71007   2.72041   2.73400   2.74140
 Alpha virt. eigenvalues --    2.74389   2.75005   2.76034   2.76637   2.77201
 Alpha virt. eigenvalues --    2.77754   2.78291   2.79477   2.80133   2.80832
 Alpha virt. eigenvalues --    2.81992   2.82724   2.83245   2.83356   2.83975
 Alpha virt. eigenvalues --    2.84955   2.85680   2.86468   2.87167   2.88251
 Alpha virt. eigenvalues --    2.88683   2.89978   2.90641   2.91116   2.92074
 Alpha virt. eigenvalues --    2.93094   2.94314   2.95288   2.96844   2.97250
 Alpha virt. eigenvalues --    2.98809   3.00190   3.01308   3.01642   3.02385
 Alpha virt. eigenvalues --    3.02591   3.03414   3.05800   3.06246   3.07776
 Alpha virt. eigenvalues --    3.08635   3.09381   3.10378   3.11559   3.12072
 Alpha virt. eigenvalues --    3.13133   3.14167   3.14523   3.15218   3.15630
 Alpha virt. eigenvalues --    3.16563   3.17626   3.18377   3.19287   3.20409
 Alpha virt. eigenvalues --    3.21308   3.21761   3.22110   3.22469   3.24328
 Alpha virt. eigenvalues --    3.25005   3.25995   3.26816   3.27502   3.27639
 Alpha virt. eigenvalues --    3.28684   3.29575   3.30197   3.31219   3.32142
 Alpha virt. eigenvalues --    3.32421   3.33047   3.33942   3.34879   3.35789
 Alpha virt. eigenvalues --    3.36679   3.37154   3.38323   3.39095   3.39267
 Alpha virt. eigenvalues --    3.40223   3.41706   3.43184   3.43624   3.44608
 Alpha virt. eigenvalues --    3.45299   3.45426   3.46461   3.47189   3.48546
 Alpha virt. eigenvalues --    3.50214   3.50822   3.51393   3.52548   3.52828
 Alpha virt. eigenvalues --    3.52966   3.53801   3.55071   3.55294   3.56648
 Alpha virt. eigenvalues --    3.57979   3.59237   3.60291   3.62046   3.63392
 Alpha virt. eigenvalues --    3.64375   3.64750   3.65117   3.67526   3.69698
 Alpha virt. eigenvalues --    3.72159   3.73651   3.75530   3.76074   3.78438
 Alpha virt. eigenvalues --    3.80228   3.82961   3.83663   3.84482   3.88023
 Alpha virt. eigenvalues --    3.88349   3.91773   3.93115   3.94763   3.95275
 Alpha virt. eigenvalues --    3.96212   3.97466   3.98145   4.01836   4.02735
 Alpha virt. eigenvalues --    4.04542   4.05521   4.05809   4.07579   4.08292
 Alpha virt. eigenvalues --    4.09954   4.11385   4.12371   4.12997   4.13877
 Alpha virt. eigenvalues --    4.15490   4.16206   4.16753   4.18143   4.18814
 Alpha virt. eigenvalues --    4.20271   4.20536   4.21324   4.21777   4.24132
 Alpha virt. eigenvalues --    4.25403   4.26615   4.27189   4.29064   4.30675
 Alpha virt. eigenvalues --    4.31548   4.31735   4.34081   4.37336   4.39489
 Alpha virt. eigenvalues --    4.39955   4.44042   4.44531   4.49566   4.51759
 Alpha virt. eigenvalues --    4.52623   4.56285   4.60801   4.62575   4.62791
 Alpha virt. eigenvalues --    4.67522   4.68707   4.70777   4.71513   4.72720
 Alpha virt. eigenvalues --    4.74901   4.75925   4.78309   4.82656   4.85498
 Alpha virt. eigenvalues --    4.87304   4.91121   4.92840   4.97692   5.01732
 Alpha virt. eigenvalues --    5.05593   5.07915   5.12113   5.17095   5.17671
 Alpha virt. eigenvalues --    5.18501   5.20774   5.24604   5.27790   5.31647
 Alpha virt. eigenvalues --    5.36282   5.41853   5.44558   5.56563   5.61287
 Alpha virt. eigenvalues --    5.62458   5.65877   5.88898  22.04655  22.30544
 Alpha virt. eigenvalues --   22.66325  22.68441  22.71008  22.74566  22.78620
 Alpha virt. eigenvalues --   22.83293  22.84684  22.90575  22.95823  23.02698
 Alpha virt. eigenvalues --   23.05953  23.20012  23.34637  23.76059
          Condensed to atoms (all electrons):
               1          2          3          4          5          6
     1  C    5.277190   0.527753  -0.047295   0.319844  -0.098355   0.007643
     2  C    0.527753   5.038884   0.456326  -0.116668   0.002456   0.001170
     3  C   -0.047295   0.456326   4.920588   0.012397   0.001288   0.000069
     4  C    0.319844  -0.116668   0.012397   5.191100   0.509684  -0.051069
     5  C   -0.098355   0.002456   0.001288   0.509684   4.994159   0.515275
     6  C    0.007643   0.001170   0.000069  -0.051069   0.515275   4.899514
     7  C   -0.006660   0.000339  -0.000035  -0.051847  -0.044238   0.516780
     8  C    0.014886  -0.001072   0.000058  -0.044416  -0.043954  -0.039763
     9  C   -0.122644   0.002847  -0.001917   0.417821  -0.025995  -0.050311
    10  H   -0.032541   0.395250  -0.033079   0.002274   0.001725   0.000122
    11  H    0.005600  -0.034318   0.411190  -0.000159  -0.000013  -0.000002
    12  H    0.004759   0.000799  -0.000018  -0.039078   0.402698  -0.029551
    13  H   -0.000111  -0.000032  -0.000001   0.005396  -0.032020   0.409529
    14  H    0.000089   0.000000   0.000000   0.000910   0.003384  -0.032414
    15  H    0.000034   0.000024   0.000000   0.004707   0.000230   0.003457
    16  H    0.000541   0.000986  -0.000084  -0.037125   0.005609  -0.000733
    17  C   -0.084709  -0.023493   0.538236  -0.006941   0.000149  -0.000013
    18  H    0.001326   0.002270  -0.027321   0.000180  -0.000002  -0.000000
    19  C    0.272369  -0.007360  -0.044939  -0.160525   0.006479  -0.002075
    20  C   -0.030904  -0.066141  -0.050309   0.013818   0.000348   0.000024
    21  C    0.021569  -0.000683   0.007067   0.000269  -0.000012   0.000001
    22  C   -0.006254   0.000670  -0.000814  -0.001181   0.000037  -0.000000
    23  C    0.006937  -0.000511  -0.000116   0.001331  -0.000099  -0.000018
    24  C   -0.122570   0.020136  -0.001053  -0.028788  -0.000101   0.000323
    25  H    0.000048   0.000011   0.000059   0.000058  -0.000001  -0.000000
    26  H    0.000099  -0.000009   0.000033  -0.000007  -0.000000  -0.000000
    27  H   -0.000234   0.000000  -0.000000   0.000239  -0.000000  -0.000000
    28  H   -0.004356  -0.000229   0.000134   0.004499  -0.000763   0.000208
               7          8          9         10         11         12
     1  C   -0.006660   0.014886  -0.122644  -0.032541   0.005600   0.004759
     2  C    0.000339  -0.001072   0.002847   0.395250  -0.034318   0.000799
     3  C   -0.000035   0.000058  -0.001917  -0.033079   0.411190  -0.000018
     4  C   -0.051847  -0.044416   0.417821   0.002274  -0.000159  -0.039078
     5  C   -0.044238  -0.043954  -0.025995   0.001725  -0.000013   0.402698
     6  C    0.516780  -0.039763  -0.050311   0.000122  -0.000002  -0.029551
     7  C    4.899488   0.505515  -0.024818  -0.000066   0.000000   0.004237
     8  C    0.505515   4.924080   0.458552  -0.000054  -0.000000  -0.001140
     9  C   -0.024818   0.458552   5.200317   0.001385   0.000030   0.007410
    10  H   -0.000066  -0.000054   0.001385   0.490371  -0.003578  -0.000732
    11  H    0.000000  -0.000000   0.000030  -0.003578   0.511833   0.000039
    12  H    0.004237  -0.001140   0.007410  -0.000732   0.000039   0.483291
    13  H   -0.032575   0.003999  -0.000360   0.000048   0.000000  -0.003620
    14  H    0.409039  -0.033608   0.004111  -0.000001  -0.000000  -0.000253
    15  H   -0.031585   0.409667  -0.032922   0.000004   0.000000   0.000061
    16  H    0.003492  -0.028382   0.409257   0.000098   0.000002  -0.000227
    17  C    0.000004  -0.000002   0.000688   0.003324  -0.032326  -0.000103
    18  H    0.000000  -0.000000  -0.000009  -0.000329  -0.003683   0.000000
    19  C    0.000881   0.002037   0.023492   0.010823  -0.000282   0.002264
    20  C    0.000064  -0.000298   0.004848   0.000915   0.004267   0.000073
    21  C   -0.000001  -0.000006  -0.000091   0.000024  -0.000441   0.000006
    22  C    0.000000   0.000006  -0.000194   0.000004   0.000034   0.000002
    23  C   -0.000011  -0.000121   0.002763   0.000014  -0.000008  -0.000012
    24  C   -0.000094  -0.000540   0.002732  -0.000533   0.000082  -0.000014
    25  H    0.000000  -0.000000  -0.000005  -0.000004  -0.000030  -0.000000
    26  H   -0.000000   0.000000   0.000002   0.000000  -0.000000   0.000000
    27  H   -0.000000   0.000001   0.000156  -0.000000   0.000000   0.000000
    28  H   -0.000049   0.000008  -0.009004  -0.000019  -0.000002   0.000019
              13         14         15         16         17         18
     1  C   -0.000111   0.000089   0.000034   0.000541  -0.084709   0.001326
     2  C   -0.000032   0.000000   0.000024   0.000986  -0.023493   0.002270
     3  C   -0.000001   0.000000   0.000000  -0.000084   0.538236  -0.027321
     4  C    0.005396   0.000910   0.004707  -0.037125  -0.006941   0.000180
     5  C   -0.032020   0.003384   0.000230   0.005609   0.000149  -0.000002
     6  C    0.409529  -0.032414   0.003457  -0.000733  -0.000013  -0.000000
     7  C   -0.032575   0.409039  -0.031585   0.003492   0.000004   0.000000
     8  C    0.003999  -0.033608   0.409667  -0.028382  -0.000002  -0.000000
     9  C   -0.000360   0.004111  -0.032922   0.409257   0.000688  -0.000009
    10  H    0.000048  -0.000001   0.000004   0.000098   0.003324  -0.000329
    11  H    0.000000  -0.000000   0.000000   0.000002  -0.032326  -0.003683
    12  H   -0.003620  -0.000253   0.000061  -0.000227  -0.000103   0.000000
    13  H    0.509146  -0.003946  -0.000266   0.000055  -0.000000  -0.000000
    14  H   -0.003946   0.514194  -0.003930  -0.000233  -0.000000   0.000000
    15  H   -0.000266  -0.003930   0.507587  -0.003030  -0.000000  -0.000000
    16  H    0.000055  -0.000233  -0.003030   0.463385   0.000013  -0.000001
    17  C   -0.000000  -0.000000  -0.000000   0.000013   5.052451   0.392989
    18  H   -0.000000   0.000000  -0.000000  -0.000001   0.392989   0.516691
    19  C    0.000044  -0.000021   0.000044   0.001007  -0.030820   0.013076
    20  C    0.000001  -0.000000   0.000001   0.000755   0.488673  -0.032755
    21  C    0.000000   0.000000  -0.000000  -0.000026  -0.116270  -0.005001
    22  C   -0.000000  -0.000000   0.000000   0.000023   0.009092  -0.000020
    23  C    0.000000   0.000000  -0.000007   0.000173  -0.000865   0.000128
    24  C    0.000005   0.000010  -0.000018  -0.002251   0.022098  -0.000626
    25  H   -0.000000   0.000000  -0.000000  -0.000001  -0.006309   0.006125
    26  H    0.000000  -0.000000   0.000000   0.000001  -0.000462  -0.000028
    27  H    0.000000   0.000000   0.000000   0.000023   0.000037  -0.000003
    28  H    0.000002  -0.000004   0.000037  -0.002303  -0.000332   0.000010
              19         20         21         22         23         24
     1  C    0.272369  -0.030904   0.021569  -0.006254   0.006937  -0.122570
     2  C   -0.007360  -0.066141  -0.000683   0.000670  -0.000511   0.020136
     3  C   -0.044939  -0.050309   0.007067  -0.000814  -0.000116  -0.001053
     4  C   -0.160525   0.013818   0.000269  -0.001181   0.001331  -0.028788
     5  C    0.006479   0.000348  -0.000012   0.000037  -0.000099  -0.000101
     6  C   -0.002075   0.000024   0.000001  -0.000000  -0.000018   0.000323
     7  C    0.000881   0.000064  -0.000001   0.000000  -0.000011  -0.000094
     8  C    0.002037  -0.000298  -0.000006   0.000006  -0.000121  -0.000540
     9  C    0.023492   0.004848  -0.000091  -0.000194   0.002763   0.002732
    10  H    0.010823   0.000915   0.000024   0.000004   0.000014  -0.000533
    11  H   -0.000282   0.004267  -0.000441   0.000034  -0.000008   0.000082
    12  H    0.002264   0.000073   0.000006   0.000002  -0.000012  -0.000014
    13  H    0.000044   0.000001   0.000000  -0.000000   0.000000   0.000005
    14  H   -0.000021  -0.000000   0.000000  -0.000000   0.000000   0.000010
    15  H    0.000044   0.000001  -0.000000   0.000000  -0.000007  -0.000018
    16  H    0.001007   0.000755  -0.000026   0.000023   0.000173  -0.002251
    17  C   -0.030820   0.488673  -0.116270   0.009092  -0.000865   0.022098
    18  H    0.013076  -0.032755  -0.005001  -0.000020   0.000128  -0.000626
    19  C    5.168417   0.398230  -0.056159  -0.042383  -0.070655   0.464539
    20  C    0.398230   4.817144   0.501974  -0.056241  -0.031296  -0.054626
    21  C   -0.056159   0.501974   5.052804   0.541963  -0.029085  -0.099417
    22  C   -0.042383  -0.056241   0.541963   4.891103   0.474229  -0.012726
    23  C   -0.070655  -0.031296  -0.029085   0.474229   4.908222   0.525318
    24  C    0.464539  -0.054626  -0.099417  -0.012726   0.525318   5.190358
    25  H    0.015588  -0.035488   0.397020  -0.029699   0.003220  -0.000901
    26  H    0.000136   0.004317  -0.034080   0.413174  -0.038192   0.005957
    27  H    0.006445   0.001267   0.004209  -0.037628   0.407277  -0.029374
    28  H   -0.013632   0.001620   0.001272   0.000680  -0.014660   0.381906
              25         26         27         28
     1  C    0.000048   0.000099  -0.000234  -0.004356
     2  C    0.000011  -0.000009   0.000000  -0.000229
     3  C    0.000059   0.000033  -0.000000   0.000134
     4  C    0.000058  -0.000007   0.000239   0.004499
     5  C   -0.000001  -0.000000  -0.000000  -0.000763
     6  C   -0.000000  -0.000000  -0.000000   0.000208
     7  C    0.000000  -0.000000  -0.000000  -0.000049
     8  C   -0.000000   0.000000   0.000001   0.000008
     9  C   -0.000005   0.000002   0.000156  -0.009004
    10  H   -0.000004   0.000000  -0.000000  -0.000019
    11  H   -0.000030  -0.000000   0.000000  -0.000002
    12  H   -0.000000   0.000000   0.000000   0.000019
    13  H   -0.000000   0.000000   0.000000   0.000002
    14  H    0.000000  -0.000000   0.000000  -0.000004
    15  H   -0.000000   0.000000   0.000000   0.000037
    16  H   -0.000001   0.000001   0.000023  -0.002303
    17  C   -0.006309  -0.000462   0.000037  -0.000332
    18  H    0.006125  -0.000028  -0.000003   0.000010
    19  C    0.015588   0.000136   0.006445  -0.013632
    20  C   -0.035488   0.004317   0.001267   0.001620
    21  C    0.397020  -0.034080   0.004209   0.001272
    22  C   -0.029699   0.413174  -0.037628   0.000680
    23  C    0.003220  -0.038192   0.407277  -0.014660
    24  C   -0.000901   0.005957  -0.029374   0.381906
    25  H    0.516749  -0.003681  -0.000320   0.000056
    26  H   -0.003681   0.515838  -0.004207  -0.000258
    27  H   -0.000320  -0.004207   0.512150  -0.003256
    28  H    0.000056  -0.000258  -0.003256   0.459937
 Mulliken charges:
               1
     1  C    0.095944
     2  C   -0.199405
     3  C   -0.140462
     4  C    0.053280
     5  C   -0.197969
     6  C   -0.148169
     7  C   -0.147861
     8  C   -0.125452
     9  C   -0.268141
    10  H    0.164554
    11  H    0.141765
    12  H    0.169087
    13  H    0.144706
    14  H    0.142672
    15  H    0.145901
    16  H    0.188974
    17  C   -0.205107
    18  H    0.136984
    19  C    0.042982
    20  C    0.119719
    21  C   -0.186908
    22  C   -0.143878
    23  C   -0.143956
    24  C   -0.259830
    25  H    0.137505
    26  H    0.141368
    27  H    0.143218
    28  H    0.198478
 Sum of Mulliken charges =  -0.00000
 Mulliken charges with hydrogens summed into heavy atoms:
               1
     1  C    0.095944
     2  C   -0.034851
     3  C    0.001303
     4  C    0.053280
     5  C   -0.028882
     6  C   -0.003463
     7  C   -0.005189
     8  C    0.020449
     9  C   -0.079167
    17  C   -0.068124
    19  C    0.042982
    20  C    0.119719
    21  C   -0.049402
    22  C   -0.002509
    23  C   -0.000737
    24  C   -0.061352
 Electronic spatial extent (au):  <R**2>=           3677.1232
 Charge=              0.0000 electrons
 Dipole moment (field-independent basis, Debye):
    X=             -0.1189    Y=             -0.0541    Z=             -0.0063  Tot=              0.1308
 Quadrupole moment (field-independent basis, Debye-Ang):
   XX=            -81.9423   YY=            -85.1132   ZZ=            -97.0466
   XY=              1.0178   XZ=              1.3305   YZ=             -2.0699
 Traceless Quadrupole moment (field-independent basis, Debye-Ang):
   XX=              6.0917   YY=              2.9208   ZZ=             -9.0125
   XY=              1.0178   XZ=              1.3305   YZ=             -2.0699
 Octapole moment (field-independent basis, Debye-Ang**2):
  XXX=              3.3335  YYY=              3.0003  ZZZ=              0.5177  XYY=             10.7170
  XXY=             -8.3144  XXZ=             -7.0830  XZZ=            -13.4006  YZZ=             -1.2248
  YYZ=              1.4632  XYZ=             14.0912
 Hexadecapole moment (field-independent basis, Debye-Ang**3):
 XXXX=          -3294.3862 YYYY=          -1170.3026 ZZZZ=           -279.2248 XXXY=             40.7867
 XXXZ=             42.6450 YYYX=            -11.3669 YYYZ=             14.4519 ZZZX=              5.8394
 ZZZY=            -19.4946 XXYY=           -770.6896 XXZZ=           -680.4594 YYZZ=           -270.2148
 XXYZ=            -27.3245 YYXZ=            -10.1474 ZZXY=              1.8030
 N-N= 9.529566162261D+02 E-N=-3.335985580032D+03  KE= 6.135570844419D+02
 ******************************Gaussian NBO Version 3.1******************************
             N A T U R A L   A T O M I C   O R B I T A L   A N D
          N A T U R A L   B O N D   O R B I T A L   A N A L Y S I S
 ******************************Gaussian NBO Version 3.1******************************
       /RESON  / : Allow strongly delocalized NBO set

 Analyzing the SCF density

 Job title: Structure697                                                    

 Storage needed:    970820 in NPA,   1293015 in NBO (1048571856 available)
 GSVD:  LWork=      132904 too small for GESVD, short by      243782 words or      243782 for optimal perf.


 NATURAL POPULATIONS:  Natural atomic orbital occupancies 
                                                          
   NAO  Atom  No  lang   Type(AO)    Occupancy      Energy
 ----------------------------------------------------------
     1    C    1  S      Cor( 1S)     1.99910     -10.39821
     2    C    1  S      Val( 2S)     0.90634      -0.20023
     3    C    1  S      Ryd( 3S)     0.00110       1.22022
     4    C    1  S      Ryd( 4S)     0.00054       1.82838
     5    C    1  S      Ryd( 5S)     0.00000      21.05290
     6    C    1  px     Val( 2p)     1.03323      -0.05095
     7    C    1  px     Ryd( 3p)     0.00484       1.25940
     8    C    1  px     Ryd( 4p)     0.00040       2.05695
     9    C    1  py     Val( 2p)     1.05797      -0.06670
    10    C    1  py     Ryd( 3p)     0.00389       1.09326
    11    C    1  py     Ryd( 4p)     0.00047       1.76085
    12    C    1  pz     Val( 2p)     0.99549      -0.11074
    13    C    1  pz     Ryd( 3p)     0.00349       0.78123
    14    C    1  pz     Ryd( 4p)     0.00022       1.41025
    15    C    1  dxy    Ryd( 3d)     0.00113       2.45592
    16    C    1  dxy    Ryd( 4d)     0.00071       3.78822
    17    C    1  dxz    Ryd( 3d)     0.00035       1.41706
    18    C    1  dxz    Ryd( 4d)     0.00022       3.36104
    19    C    1  dyz    Ryd( 3d)     0.00025       1.33577
    20    C    1  dyz    Ryd( 4d)     0.00030       3.35410
    21    C    1  dx2y2  Ryd( 3d)     0.00091       2.69852
    22    C    1  dx2y2  Ryd( 4d)     0.00046       3.69236
    23    C    1  dz2    Ryd( 3d)     0.00078       2.08826
    24    C    1  dz2    Ryd( 4d)     0.00010       3.77531
    25    C    1  f(0)   Ryd( 4f)     0.00014       3.54542
    26    C    1  f(C1)  Ryd( 4f)     0.00012       3.77139
    27    C    1  f(S1)  Ryd( 4f)     0.00007       3.75904
    28    C    1  f(C2)  Ryd( 4f)     0.00002       3.64462
    29    C    1  f(S2)  Ryd( 4f)     0.00003       3.66669
    30    C    1  f(C3)  Ryd( 4f)     0.00005       4.35642
    31    C    1  f(S3)  Ryd( 4f)     0.00010       4.36485
 
    32    C    2  S      Cor( 1S)     1.99916     -10.38002
    33    C    2  S      Val( 2S)     0.96801      -0.22619
    34    C    2  S      Ryd( 3S)     0.00079       1.51125
    35    C    2  S      Ryd( 4S)     0.00006       1.90894
    36    C    2  S      Ryd( 5S)     0.00000      20.82977
    37    C    2  px     Val( 2p)     1.12500      -0.06960
    38    C    2  px     Ryd( 3p)     0.00370       1.26888
    39    C    2  px     Ryd( 4p)     0.00012       2.16231
    40    C    2  py     Val( 2p)     1.08868      -0.06632
    41    C    2  py     Ryd( 3p)     0.00340       1.07247
    42    C    2  py     Ryd( 4p)     0.00026       2.58217
    43    C    2  pz     Val( 2p)     1.00141      -0.11581
    44    C    2  pz     Ryd( 3p)     0.00155       0.69619
    45    C    2  pz     Ryd( 4p)     0.00031       1.45713
    46    C    2  dxy    Ryd( 3d)     0.00085       2.10973
    47    C    2  dxy    Ryd( 4d)     0.00066       3.66886
    48    C    2  dxz    Ryd( 3d)     0.00021       1.41619
    49    C    2  dxz    Ryd( 4d)     0.00013       2.91998
    50    C    2  dyz    Ryd( 3d)     0.00037       1.46971
    51    C    2  dyz    Ryd( 4d)     0.00013       2.97917
    52    C    2  dx2y2  Ryd( 3d)     0.00228       1.73110
    53    C    2  dx2y2  Ryd( 4d)     0.00045       3.43084
    54    C    2  dz2    Ryd( 3d)     0.00103       1.63613
    55    C    2  dz2    Ryd( 4d)     0.00005       3.35015
    56    C    2  f(0)   Ryd( 4f)     0.00027       3.33615
    57    C    2  f(C1)  Ryd( 4f)     0.00021       3.54496
    58    C    2  f(S1)  Ryd( 4f)     0.00020       3.66893
    59    C    2  f(C2)  Ryd( 4f)     0.00003       3.49699
    60    C    2  f(S2)  Ryd( 4f)     0.00002       3.43505
    61    C    2  f(C3)  Ryd( 4f)     0.00005       4.14394
    62    C    2  f(S3)  Ryd( 4f)     0.00009       4.29200
 
    63    C    3  S      Cor( 1S)     1.99924     -10.38073
    64    C    3  S      Val( 2S)     0.97075      -0.23084
    65    C    3  S      Ryd( 3S)     0.00076       1.25927
    66    C    3  S      Ryd( 4S)     0.00004       1.29542
    67    C    3  S      Ryd( 5S)     0.00000      21.64509
    68    C    3  px     Val( 2p)     1.05035      -0.06238
    69    C    3  px     Ryd( 3p)     0.00403       1.03736
    70    C    3  px     Ryd( 4p)     0.00028       2.31823
    71    C    3  py     Val( 2p)     1.16896      -0.07300
    72    C    3  py     Ryd( 3p)     0.00419       1.20539
    73    C    3  py     Ryd( 4p)     0.00017       2.14120
    74    C    3  pz     Val( 2p)     1.00177      -0.11583
    75    C    3  pz     Ryd( 3p)     0.00181       0.69449
    76    C    3  pz     Ryd( 4p)     0.00045       1.37698
    77    C    3  dxy    Ryd( 3d)     0.00197       1.81780
    78    C    3  dxy    Ryd( 4d)     0.00052       3.42254
    79    C    3  dxz    Ryd( 3d)     0.00015       1.44927
    80    C    3  dxz    Ryd( 4d)     0.00019       2.99609
    81    C    3  dyz    Ryd( 3d)     0.00030       1.33152
    82    C    3  dyz    Ryd( 4d)     0.00009       2.86403
    83    C    3  dx2y2  Ryd( 3d)     0.00117       1.99136
    84    C    3  dx2y2  Ryd( 4d)     0.00071       3.62723
    85    C    3  dz2    Ryd( 3d)     0.00078       1.59809
    86    C    3  dz2    Ryd( 4d)     0.00006       3.31610
    87    C    3  f(0)   Ryd( 4f)     0.00022       3.32783
    88    C    3  f(C1)  Ryd( 4f)     0.00014       3.67423
    89    C    3  f(S1)  Ryd( 4f)     0.00024       3.47186
    90    C    3  f(C2)  Ryd( 4f)     0.00002       3.36588
    91    C    3  f(S2)  Ryd( 4f)     0.00001       3.48613
    92    C    3  f(C3)  Ryd( 4f)     0.00008       4.05031
    93    C    3  f(S3)  Ryd( 4f)     0.00006       4.30882
 
    94    C    4  S      Cor( 1S)     1.99910     -10.39157
    95    C    4  S      Val( 2S)     0.90921      -0.20261
    96    C    4  S      Ryd( 3S)     0.00137       1.11555
    97    C    4  S      Ryd( 4S)     0.00049       1.76170
    98    C    4  S      Ryd( 5S)     0.00000      21.44285
    99    C    4  px     Val( 2p)     1.04444      -0.06241
   100    C    4  px     Ryd( 3p)     0.00617       1.25991
   101    C    4  px     Ryd( 4p)     0.00040       1.94248
   102    C    4  py     Val( 2p)     1.03680      -0.09067
   103    C    4  py     Ryd( 3p)     0.00393       1.03625
   104    C    4  py     Ryd( 4p)     0.00029       1.53822
   105    C    4  pz     Val( 2p)     1.04448      -0.08965
   106    C    4  pz     Ryd( 3p)     0.00191       0.94645
   107    C    4  pz     Ryd( 4p)     0.00044       1.44059
   108    C    4  dxy    Ryd( 3d)     0.00063       1.96175
   109    C    4  dxy    Ryd( 4d)     0.00042       3.54686
   110    C    4  dxz    Ryd( 3d)     0.00072       1.76531
   111    C    4  dxz    Ryd( 4d)     0.00033       3.46016
   112    C    4  dyz    Ryd( 3d)     0.00075       1.82774
   113    C    4  dyz    Ryd( 4d)     0.00020       3.46259
   114    C    4  dx2y2  Ryd( 3d)     0.00096       1.98112
   115    C    4  dx2y2  Ryd( 4d)     0.00047       3.59726
   116    C    4  dz2    Ryd( 3d)     0.00034       1.53955
   117    C    4  dz2    Ryd( 4d)     0.00047       3.50719
   118    C    4  f(0)   Ryd( 4f)     0.00004       3.65065
   119    C    4  f(C1)  Ryd( 4f)     0.00004       3.87883
   120    C    4  f(S1)  Ryd( 4f)     0.00008       3.73084
   121    C    4  f(C2)  Ryd( 4f)     0.00010       3.87604
   122    C    4  f(S2)  Ryd( 4f)     0.00009       3.93404
   123    C    4  f(C3)  Ryd( 4f)     0.00007       4.01313
   124    C    4  f(S3)  Ryd( 4f)     0.00008       3.94460
 
   125    C    5  S      Cor( 1S)     1.99916     -10.38225
   126    C    5  S      Val( 2S)     0.97142      -0.22814
   127    C    5  S      Ryd( 3S)     0.00084       1.49771
   128    C    5  S      Ryd( 4S)     0.00007       1.63273
   129    C    5  S      Ryd( 5S)     0.00000      21.11523
   130    C    5  px     Val( 2p)     1.05358      -0.06851
   131    C    5  px     Ryd( 3p)     0.00294       1.11459
   132    C    5  px     Ryd( 4p)     0.00020       2.38945
   133    C    5  py     Val( 2p)     1.08181      -0.09493
   134    C    5  py     Ryd( 3p)     0.00315       0.93484
   135    C    5  py     Ryd( 4p)     0.00025       1.91278
   136    C    5  pz     Val( 2p)     1.07342      -0.08837
   137    C    5  pz     Ryd( 3p)     0.00286       0.91746
   138    C    5  pz     Ryd( 4p)     0.00029       2.08198
   139    C    5  dxy    Ryd( 3d)     0.00126       1.54879
   140    C    5  dxy    Ryd( 4d)     0.00037       3.25831
   141    C    5  dxz    Ryd( 3d)     0.00131       1.60205
   142    C    5  dxz    Ryd( 4d)     0.00042       3.36723
   143    C    5  dyz    Ryd( 3d)     0.00073       1.69735
   144    C    5  dyz    Ryd( 4d)     0.00027       3.34740
   145    C    5  dx2y2  Ryd( 3d)     0.00082       1.71320
   146    C    5  dx2y2  Ryd( 4d)     0.00031       3.38983
   147    C    5  dz2    Ryd( 3d)     0.00068       1.48831
   148    C    5  dz2    Ryd( 4d)     0.00016       3.09786
   149    C    5  f(0)   Ryd( 4f)     0.00011       3.54986
   150    C    5  f(C1)  Ryd( 4f)     0.00012       3.72536
   151    C    5  f(S1)  Ryd( 4f)     0.00017       3.50565
   152    C    5  f(C2)  Ryd( 4f)     0.00016       3.71590
   153    C    5  f(S2)  Ryd( 4f)     0.00013       3.77422
   154    C    5  f(C3)  Ryd( 4f)     0.00006       3.73054
   155    C    5  f(S3)  Ryd( 4f)     0.00011       3.77876
 
   156    C    6  S      Cor( 1S)     1.99924     -10.38361
   157    C    6  S      Val( 2S)     0.97609      -0.23566
   158    C    6  S      Ryd( 3S)     0.00080       1.22505
   159    C    6  S      Ryd( 4S)     0.00005       1.25477
   160    C    6  S      Ryd( 5S)     0.00000      21.65636
   161    C    6  px     Val( 2p)     1.09499      -0.07011
   162    C    6  px     Ryd( 3p)     0.00386       1.07749
   163    C    6  px     Ryd( 4p)     0.00026       2.10806
   164    C    6  py     Val( 2p)     1.03971      -0.09218
   165    C    6  py     Ryd( 3p)     0.00272       0.89629
   166    C    6  py     Ryd( 4p)     0.00028       1.76898
   167    C    6  pz     Val( 2p)     1.07768      -0.09104
   168    C    6  pz     Ryd( 3p)     0.00313       0.97266
   169    C    6  pz     Ryd( 4p)     0.00024       1.78569
   170    C    6  dxy    Ryd( 3d)     0.00076       1.63751
   171    C    6  dxy    Ryd( 4d)     0.00040       3.33192
   172    C    6  dxz    Ryd( 3d)     0.00068       1.66991
   173    C    6  dxz    Ryd( 4d)     0.00053       3.32262
   174    C    6  dyz    Ryd( 3d)     0.00119       1.57847
   175    C    6  dyz    Ryd( 4d)     0.00020       3.32847
   176    C    6  dx2y2  Ryd( 3d)     0.00114       1.55253
   177    C    6  dx2y2  Ryd( 4d)     0.00033       3.25739
   178    C    6  dz2    Ryd( 3d)     0.00063       1.41203
   179    C    6  dz2    Ryd( 4d)     0.00022       3.05992
   180    C    6  f(0)   Ryd( 4f)     0.00009       3.48133
   181    C    6  f(C1)  Ryd( 4f)     0.00004       3.62551
   182    C    6  f(S1)  Ryd( 4f)     0.00019       3.55771
   183    C    6  f(C2)  Ryd( 4f)     0.00012       3.70420
   184    C    6  f(S2)  Ryd( 4f)     0.00014       3.72110
   185    C    6  f(C3)  Ryd( 4f)     0.00010       3.69791
   186    C    6  f(S3)  Ryd( 4f)     0.00008       3.75080
 
   187    C    7  S      Cor( 1S)     1.99924     -10.38262
   188    C    7  S      Val( 2S)     0.97677      -0.23610
   189    C    7  S      Ryd( 3S)     0.00080       1.24628
   190    C    7  S      Ryd( 4S)     0.00004       1.33790
   191    C    7  S      Ryd( 5S)     0.00000      21.59376
   192    C    7  px     Val( 2p)     1.15457      -0.07421
   193    C    7  px     Ryd( 3p)     0.00432       1.16105
   194    C    7  px     Ryd( 4p)     0.00017       2.06928
   195    C    7  py     Val( 2p)     1.03664      -0.09146
   196    C    7  py     Ryd( 3p)     0.00278       0.86713
   197    C    7  py     Ryd( 4p)     0.00034       1.78549
   198    C    7  pz     Val( 2p)     1.02668      -0.08682
   199    C    7  pz     Ryd( 3p)     0.00279       0.87128
   200    C    7  pz     Ryd( 4p)     0.00034       1.86749
   201    C    7  dxy    Ryd( 3d)     0.00088       1.59324
   202    C    7  dxy    Ryd( 4d)     0.00038       3.12928
   203    C    7  dxz    Ryd( 3d)     0.00118       1.57415
   204    C    7  dxz    Ryd( 4d)     0.00031       3.14792
   205    C    7  dyz    Ryd( 3d)     0.00094       1.72554
   206    C    7  dyz    Ryd( 4d)     0.00015       3.43058
   207    C    7  dx2y2  Ryd( 3d)     0.00077       1.66158
   208    C    7  dx2y2  Ryd( 4d)     0.00045       3.19652
   209    C    7  dz2    Ryd( 3d)     0.00028       1.58563
   210    C    7  dz2    Ryd( 4d)     0.00037       3.09916
   211    C    7  f(0)   Ryd( 4f)     0.00007       3.52739
   212    C    7  f(C1)  Ryd( 4f)     0.00004       3.68838
   213    C    7  f(S1)  Ryd( 4f)     0.00016       3.61036
   214    C    7  f(C2)  Ryd( 4f)     0.00017       3.69676
   215    C    7  f(S2)  Ryd( 4f)     0.00018       3.78177
   216    C    7  f(C3)  Ryd( 4f)     0.00005       3.56031
   217    C    7  f(S3)  Ryd( 4f)     0.00007       3.63190
 
   218    C    8  S      Cor( 1S)     1.99924     -10.38358
   219    C    8  S      Val( 2S)     0.97566      -0.23519
   220    C    8  S      Ryd( 3S)     0.00078       1.23573
   221    C    8  S      Ryd( 4S)     0.00005       1.25565
   222    C    8  S      Ryd( 5S)     0.00000      21.63948
   223    C    8  px     Val( 2p)     1.05605      -0.06804
   224    C    8  px     Ryd( 3p)     0.00352       0.99527
   225    C    8  px     Ryd( 4p)     0.00025       2.25151
   226    C    8  py     Val( 2p)     1.08090      -0.09516
   227    C    8  py     Ryd( 3p)     0.00295       0.94293
   228    C    8  py     Ryd( 4p)     0.00025       1.72283
   229    C    8  pz     Val( 2p)     1.07708      -0.09077
   230    C    8  pz     Ryd( 3p)     0.00318       0.95807
   231    C    8  pz     Ryd( 4p)     0.00025       1.80842
   232    C    8  dxy    Ryd( 3d)     0.00094       1.70506
   233    C    8  dxy    Ryd( 4d)     0.00025       3.11124
   234    C    8  dxz    Ryd( 3d)     0.00091       1.77962
   235    C    8  dxz    Ryd( 4d)     0.00029       3.21150
   236    C    8  dyz    Ryd( 3d)     0.00086       1.75400
   237    C    8  dyz    Ryd( 4d)     0.00035       3.18686
   238    C    8  dx2y2  Ryd( 3d)     0.00089       1.75520
   239    C    8  dx2y2  Ryd( 4d)     0.00036       3.22262
   240    C    8  dz2    Ryd( 3d)     0.00065       1.55630
   241    C    8  dz2    Ryd( 4d)     0.00020       2.91190
   242    C    8  f(0)   Ryd( 4f)     0.00009       3.49044
   243    C    8  f(C1)  Ryd( 4f)     0.00008       3.72474
   244    C    8  f(S1)  Ryd( 4f)     0.00014       3.46543
   245    C    8  f(C2)  Ryd( 4f)     0.00015       3.66556
   246    C    8  f(S2)  Ryd( 4f)     0.00011       3.76377
   247    C    8  f(C3)  Ryd( 4f)     0.00007       3.69549
   248    C    8  f(S3)  Ryd( 4f)     0.00010       3.74759
 
   249    C    9  S      Cor( 1S)     1.99914     -10.38203
   250    C    9  S      Val( 2S)     0.97102      -0.22843
   251    C    9  S      Ryd( 4S)     0.00103       1.64699
   252    C    9  S      Ryd( 3S)     0.00006       1.26276
   253    C    9  S      Ryd( 5S)     0.00000      21.42238
   254    C    9  px     Val( 2p)     1.09991      -0.07295
   255    C    9  px     Ryd( 3p)     0.00311       1.24003
   256    C    9  px     Ryd( 4p)     0.00015       2.09196
   257    C    9  py     Val( 2p)     1.03386      -0.09187
   258    C    9  py     Ryd( 3p)     0.00224       0.91773
   259    C    9  py     Ryd( 4p)     0.00035       1.93859
   260    C    9  pz     Val( 2p)     1.07871      -0.08875
   261    C    9  pz     Ryd( 3p)     0.00279       0.98138
   262    C    9  pz     Ryd( 4p)     0.00038       1.73046
   263    C    9  dxy    Ryd( 3d)     0.00075       1.67601
   264    C    9  dxy    Ryd( 4d)     0.00034       3.39414
   265    C    9  dxz    Ryd( 3d)     0.00096       1.69869
   266    C    9  dxz    Ryd( 4d)     0.00050       3.37489
   267    C    9  dyz    Ryd( 3d)     0.00130       1.59034
   268    C    9  dyz    Ryd( 4d)     0.00011       3.42368
   269    C    9  dx2y2  Ryd( 3d)     0.00140       1.53472
   270    C    9  dx2y2  Ryd( 4d)     0.00032       3.29223
   271    C    9  dz2    Ryd( 3d)     0.00071       1.47884
   272    C    9  dz2    Ryd( 4d)     0.00015       3.12400
   273    C    9  f(0)   Ryd( 4f)     0.00009       3.56338
   274    C    9  f(C1)  Ryd( 4f)     0.00006       3.65607
   275    C    9  f(S1)  Ryd( 4f)     0.00016       3.59187
   276    C    9  f(C2)  Ryd( 4f)     0.00014       3.70688
   277    C    9  f(S2)  Ryd( 4f)     0.00015       3.76884
   278    C    9  f(C3)  Ryd( 4f)     0.00010       3.72274
   279    C    9  f(S3)  Ryd( 4f)     0.00007       3.75744
 
   280    H   10  S      Val( 1S)     0.78276       0.05368
   281    H   10  S      Ryd( 3S)     0.00040       1.53415
   282    H   10  S      Ryd( 2S)     0.00015       1.45745
   283    H   10  px     Ryd( 2p)     0.00030       2.96799
   284    H   10  py     Ryd( 2p)     0.00018       2.96068
   285    H   10  pz     Ryd( 2p)     0.00010       2.23806
 
   286    H   11  S      Val( 1S)     0.78428       0.05163
   287    H   11  S      Ryd( 2S)     0.00030       1.15534
   288    H   11  S      Ryd( 3S)     0.00020       1.64935
   289    H   11  px     Ryd( 2p)     0.00005       2.83600
   290    H   11  py     Ryd( 2p)     0.00040       3.04514
   291    H   11  pz     Ryd( 2p)     0.00007       2.19819
 
   292    H   12  S      Val( 1S)     0.78143       0.05416
   293    H   12  S      Ryd( 3S)     0.00041       1.53252
   294    H   12  S      Ryd( 2S)     0.00015       1.45204
   295    H   12  px     Ryd( 2p)     0.00012       2.78854
   296    H   12  py     Ryd( 2p)     0.00025       2.63796
   297    H   12  pz     Ryd( 2p)     0.00021       2.65830
 
   298    H   13  S      Val( 1S)     0.78429       0.05070
   299    H   13  S      Ryd( 2S)     0.00030       1.11688
   300    H   13  S      Ryd( 3S)     0.00020       1.66599
   301    H   13  px     Ryd( 2p)     0.00021       2.86358
   302    H   13  py     Ryd( 2p)     0.00011       2.51903
   303    H   13  pz     Ryd( 2p)     0.00021       2.63558
 
   304    H   14  S      Val( 1S)     0.78658       0.05113
   305    H   14  S      Ryd( 2S)     0.00028       1.04005
   306    H   14  S      Ryd( 3S)     0.00019       1.75374
   307    H   14  px     Ryd( 2p)     0.00038       2.97735
   308    H   14  py     Ryd( 2p)     0.00009       2.50581
   309    H   14  pz     Ryd( 2p)     0.00005       2.52170
 
   310    H   15  S      Val( 1S)     0.78407       0.05085
   311    H   15  S      Ryd( 2S)     0.00034       1.14444
   312    H   15  S      Ryd( 3S)     0.00018       1.69770
   313    H   15  px     Ryd( 2p)     0.00008       2.77780
   314    H   15  py     Ryd( 2p)     0.00023       2.60663
   315    H   15  pz     Ryd( 2p)     0.00021       2.63326
 
   316    H   16  S      Val( 1S)     0.78084       0.05389
   317    H   16  S      Ryd( 2S)     0.00071       0.71384
   318    H   16  S      Ryd( 3S)     0.00022       2.30995
   319    H   16  px     Ryd( 2p)     0.00015       2.88848
   320    H   16  py     Ryd( 2p)     0.00011       2.54819
   321    H   16  pz     Ryd( 2p)     0.00016       2.69861
 
   322    C   17  S      Cor( 1S)     1.99920     -10.38451
   323    C   17  S      Val( 2S)     0.96952      -0.22890
   324    C   17  S      Ryd( 3S)     0.00073       1.42252
   325    C   17  S      Ryd( 4S)     0.00007       1.73575
   326    C   17  S      Ryd( 5S)     0.00000      21.14752
   327    C   17  px     Val( 2p)     1.15194      -0.07017
   328    C   17  px     Ryd( 3p)     0.00391       1.22692
   329    C   17  px     Ryd( 4p)     0.00023       2.42013
   330    C   17  py     Val( 2p)     1.04394      -0.05651
   331    C   17  py     Ryd( 3p)     0.00327       1.05905
   332    C   17  py     Ryd( 4p)     0.00029       2.48721
   333    C   17  pz     Val( 2p)     0.99393      -0.11563
   334    C   17  pz     Ryd( 3p)     0.00175       0.67535
   335    C   17  pz     Ryd( 4p)     0.00054       1.45501
   336    C   17  dxy    Ryd( 3d)     0.00111       2.03747
   337    C   17  dxy    Ryd( 4d)     0.00052       3.49198
   338    C   17  dxz    Ryd( 3d)     0.00032       1.44936
   339    C   17  dxz    Ryd( 4d)     0.00009       2.77000
   340    C   17  dyz    Ryd( 3d)     0.00020       1.54243
   341    C   17  dyz    Ryd( 4d)     0.00011       2.91632
   342    C   17  dx2y2  Ryd( 3d)     0.00158       1.91771
   343    C   17  dx2y2  Ryd( 4d)     0.00070       3.46788
   344    C   17  dz2    Ryd( 3d)     0.00065       1.71198
   345    C   17  dz2    Ryd( 4d)     0.00007       3.27477
   346    C   17  f(0)   Ryd( 4f)     0.00022       3.33323
   347    C   17  f(C1)  Ryd( 4f)     0.00024       3.51207
[...]
 043144,0.03911733,-0.02606193,-0.00156668,-0.00190249,-0.00131011,-0.0
 2555274,-0.02013555,0.02923811,-0.03271643,0.06613695,-0.11907314,-0.0
 9919811,-0.27522687,0.38685440,-0.00355400,0.01705740,-0.01340213,-0.0
 1886313,-0.00694717,0.00863532,0.02062743,-0.00948094,0.00468091,0.000
 74257,0.00004423,-0.00005305,0.00007087,0.00006039,0.00008308,-0.00015
 745,-0.00012088,-0.00010753,-0.00006265,0.00018094,0.00007354,0.000223
 96,-0.00002266,-0.00010498,-0.00027105,-0.00027744,0.00006739,-0.00029
 876,-0.00030747,0.00007181,0.00016044,0.00011280,-0.00020568,0.0000332
 9,-0.00011492,0.00000855,0.00000165,0.00000355,0.00000136,-0.00001185,
 -0.00000617,0.00002954,-0.00001209,0.00000531,-0.00004612,-0.00007147,
 0.00009126,0.00003765,-0.00122822,0.02284612,-0.01733303,-0.00001939,0
 .00036875,-0.00039940,-0.02701212,-0.03150730,0.03095470,0.04657080,-0
 .02763581,0.01578390,-0.18301301,-0.04467150,0.05858078,0.65417601,-0.
 00150851,0.00531211,-0.00503545,-0.00679319,-0.00299943,0.00376075,0.0
 0844240,-0.00429994,0.00209555,0.00018840,-0.00019470,-0.00002093,-0.0
 0002423,0.00006627,0.00004575,0.00003390,0.00001901,-0.00004232,0.0000
 1390,-0.00002229,-0.00002742,-0.00004530,0.00002929,0.00001436,0.00011
 782,-0.00017833,0.00017034,-0.00012413,0.00003422,0.00007040,0.0002169
 7,-0.00060446,-0.00012877,0.00000001,-0.00001014,0.00004201,0.00000640
 ,-0.00000320,0.00000810,0.00000258,-0.00000334,0.00001525,0.00001387,0
 .00000381,-0.00000124,0.00001506,-0.00004494,0.00003286,0.00464674,0.0
 1008128,-0.00369653,-0.00030244,0.00005361,-0.00011128,-0.01258521,-0.
 01374966,0.00799382,0.00732368,-0.03482775,0.03382419,-0.09676759,-0.2
 1790875,0.14980304,-0.05966794,0.51221577,0.00177581,-0.00848165,0.006
 21575,0.00958057,0.00437091,-0.00443836,-0.01121005,0.00536201,-0.0029
 4244,-0.00016409,-0.00026083,-0.00037084,-0.00002906,0.00005712,-0.000
 10352,0.00016355,0.00003619,0.00009924,0.00001027,-0.00016313,-0.00007
 315,-0.00018861,-0.00001143,0.00007409,0.00014224,0.00024041,0.0001998
 1,0.00017916,0.00012543,0.00005270,-0.00034011,-0.00006139,-0.00055495
 ,-0.00000237,0.00003267,-0.00004642,-0.00000151,-0.00000136,0.00000909
 ,0.00000167,0.00000120,-0.00003143,-0.00001395,-0.00000410,0.00002466,
 0.00006331,-0.00006194,-0.00010534,-0.00283924,-0.00783144,0.01272380,
 0.00023767,-0.00018409,0.00005713,0.01400496,0.01156666,-0.02005582,-0
 .01312615,0.04052947,-0.02454165,0.10357813,0.14087168,-0.19925928,-0.
 04603528,-0.31064285,0.40798597,0.00258677,-0.02303256,0.02009910,0.02
 053793,0.00875425,-0.01024776,-0.02133368,0.00903346,-0.00416783,-0.00
 165222,0.00022095,-0.00036986,0.00043178,-0.00030579,-0.00031654,-0.00
 008890,0.00000065,0.00017512,0.00014208,0.00003480,0.00003709,0.000136
 36,-0.00002893,-0.00007822,0.00004830,0.00064080,-0.00045759,0.0002389
 4,-0.00016004,0.00006050,-0.00036328,0.00024506,-0.00011009,-0.0000362
 1,0.00014383,-0.00002420,0.00001050,-0.00000598,0.00000266,0.00000081,
 0.00001927,-0.00003586,0.00001993,-0.00001271,0.00006348,-0.00002512,0
 .00004599,0.00002441,-0.00136044,-0.01833613,0.01489207,0.00031939,-0.
 00019091,0.00015063,0.04271351,0.03097458,-0.03343271,-0.03487395,0.03
 561257,-0.02443457,-0.02194956,-0.06156015,0.05849088,-0.29072128,0.04
 134563,0.00859086,0.65310850,-0.00496803,0.01211616,-0.00413337,-0.009
 41182,-0.00419994,0.00476907,0.00895160,-0.00411813,0.00246808,0.00005
 200,0.00019773,0.00008396,0.00025540,0.00008472,-0.00005273,-0.0001807
 3,-0.00006636,-0.00004893,0.00001533,0.00017951,0.00009112,0.00027921,
 0.00008615,-0.00013114,-0.00018446,-0.00050903,-0.00025371,-0.00028088
 ,-0.00066121,-0.00020441,0.00015493,0.00002637,0.00006165,-0.00000472,
 -0.00004468,0.00004868,0.00002238,-0.00000071,0.00000287,-0.00001451,0
 .00001346,0.00002946,0.00003849,-0.00000039,-0.00003276,-0.00001568,0.
 00009734,0.00016267,0.00079244,0.00682970,-0.00623277,-0.00013835,0.00
 003824,-0.00015197,-0.00356643,-0.03560528,0.03748364,0.01575146,-0.01
 827839,0.00607283,-0.02227041,0.02726326,-0.01244954,-0.01256778,-0.10
 086114,0.03508895,-0.05061216,0.50009625,0.00509924,-0.00142547,0.0057
 7125,0.00440551,0.00201465,-0.00265624,-0.00389283,0.00229508,-0.00087
 858,0.00023742,-0.00021590,0.00045403,-0.00028792,0.00006392,0.0000948
 6,0.00009874,0.00008807,0.00000830,-0.00004347,-0.00011615,-0.00005546
 ,-0.00023318,-0.00000807,0.00004894,0.00001960,-0.00002599,0.00012319,
 0.00012727,0.00001114,-0.00063546,-0.00004600,0.00003697,0.00009583,0.
 00000875,0.00001946,-0.00002191,-0.00002161,0.00000678,-0.00000347,0.0
 0000457,-0.00000613,-0.00000406,-0.00000924,-0.00000200,0.00001474,0.0
 0000229,-0.00000947,-0.00009600,-0.00051553,-0.00317268,0.00191645,0.0
 0002165,-0.00011850,-0.00003992,-0.00376652,0.03173617,-0.01958929,-0.
 00845871,0.00286040,-0.00823712,0.02480606,-0.00565752,0.00839990,0.05
 635186,0.02532363,-0.09614262,-0.05891472,-0.30945950,0.41857624,0.016
 68366,0.00955785,-0.01079542,-0.00213831,0.00426686,-0.00237085,-0.000
 51945,0.00051788,-0.00051069,0.00036880,0.00047694,-0.00094534,0.00000
 636,0.00001326,0.00004066,-0.00015065,-0.00011426,0.00003200,-0.000170
 73,0.00018784,0.00005649,0.00008775,-0.00015584,0.00020008,-0.00079567
 ,0.00077233,-0.00069819,0.00067242,0.00104145,-0.00076536,0.00011701,-
 0.00018518,-0.00001604,0.00005305,-0.00002268,-0.00015690,-0.00001319,
 -0.00001456,0.00003995,-0.00000246,-0.00000124,-0.00002171,-0.00005006
 ,0.00000900,-0.00011027,-0.00013750,-0.00007905,-0.00036252,-0.0059066
 5,0.00228578,-0.00006953,-0.00072409,-0.00104825,0.00101439,-0.1577506
 4,-0.05997987,0.06956533,-0.01484147,-0.02382287,0.02425796,-0.0016737
 9,0.00534946,-0.00522131,-0.03603194,0.02192993,-0.01067641,-0.2136829
 7,0.13414770,-0.08742209,0.74639764,-0.00132336,-0.03843585,0.03581313
 ,0.02223272,0.00949310,-0.00638756,-0.01751845,0.00667228,-0.00339539,
 -0.00229862,-0.00204934,-0.00018867,-0.00039123,0.00024193,0.00011928,
 0.00057241,0.00026648,0.00027401,0.00007353,-0.00067829,-0.00025486,-0
 .00085429,0.00037635,0.00043537,0.00087426,-0.00016163,0.00014248,-0.0
 0019241,-0.00010750,0.00043474,-0.00043624,-0.00019774,-0.00055601,-0.
 00000270,0.00018176,-0.00009426,0.00001243,0.00000305,0.00000886,-0.00
 000056,0.00002573,-0.00005871,0.00001834,0.00000689,0.00005908,0.00011
 167,0.00020569,0.00000198,0.00160185,-0.01000909,0.01246535,0.00055060
 ,0.00023063,-0.00020125,-0.03615933,-0.15127188,0.07840961,-0.03801004
 ,0.03198436,-0.01259231,0.00108812,-0.04187206,0.03132561,0.06105555,0
 .02055918,-0.02229859,0.08183031,-0.22642728,0.12657702,-0.09852179,0.
 45819311,-0.00084389,0.03352280,-0.02457609,-0.01746131,-0.00422619,0.
 01134504,0.01474410,-0.00617461,0.00237829,0.00097531,-0.00050775,-0.0
 0194343,0.00078453,-0.00036425,0.00007541,-0.00075112,-0.00020244,-0.0
 0013748,0.00007805,0.00071376,0.00041227,0.00099876,-0.00026107,-0.000
 69358,-0.00212582,0.00026262,-0.00156081,0.00013452,0.00004788,0.00001
 786,0.00020225,-0.00054041,-0.00045229,0.00003435,-0.00005118,-0.00000
 392,0.00002146,0.00002150,-0.00004641,-0.00003216,0.00000727,0.0000875
 9,-0.00000072,0.00001166,-0.00008778,-0.00092469,0.00039734,0.00017838
 ,0.00044802,0.01244808,-0.00501398,-0.00035442,0.00000970,0.00004207,0
 .04975799,0.08538454,-0.15280827,0.03644392,-0.01682400,0.01367315,-0.
 00180315,0.03108712,-0.03092810,-0.04430021,-0.01570582,0.02955537,-0.
 04161245,0.11704247,-0.15684581,-0.03723826,-0.25930491,0.37690061,-0.
 00074758,-0.00058344,0.00054225,0.00023698,0.00008505,-0.00009542,0.00
 001758,0.00025482,-0.00023350,0.00006430,0.00023290,-0.00013714,-0.000
 08903,-0.00002696,-0.00001274,0.00000252,0.00001474,0.00002405,-0.0000
 1563,-0.00000501,-0.00000317,-0.00000673,0.00000345,0.00000730,-0.0000
 1271,0.00000833,0.00000446,0.00004654,0.00003112,-0.00002362,-0.000022
 30,0.00005770,-0.00001405,0.00000600,0.00000098,-0.00000879,-0.0000129
 4,0.00000434,0.00000204,-0.00000551,0.00000088,-0.00000175,-0.00000870
 ,-0.00000366,0.00000208,0.00000891,0.00000928,0.00000004,0.00085483,-0
 .00181112,0.00078214,0.00046023,0.00065379,-0.00055621,0.00054782,0.00
 284021,-0.00159477,-0.01418336,-0.00102641,0.00382694,-0.33400364,0.00
 997387,0.04268236,-0.00938545,0.00234845,0.00030244,0.00119992,-0.0015
 5156,0.00258633,0.00060585,0.00006920,-0.00030795,0.35446914,0.0010743
 1,0.00015776,-0.00023630,0.00020064,0.00003863,-0.00014566,-0.00044115
 ,0.00009669,-0.00008523,0.00004053,-0.00013104,0.00029534,0.00004669,0
 .00001280,0.00001008,0.00000309,0.00000541,-0.00002931,0.00001816,-0.0
 0000976,0.00000355,-0.00000510,0.00001191,-0.00001044,0.00002786,-0.00
 003700,-0.00005600,-0.00004629,0.00000475,0.00003467,0.00001057,0.0000
 6070,0.00009235,-0.00000304,-0.00000848,0.00001266,0.00000680,-0.00000
 105,-0.00000433,0.00000058,-0.00000039,0.00000199,0.00000587,0.0000004
 0,0.00000333,-0.00001302,0.00001203,0.00000445,0.00101664,-0.00053210,
 -0.00232774,-0.00058471,-0.00014998,0.00042058,0.00206465,-0.00049962,
 0.00442409,0.02077285,0.00307792,-0.00339658,0.00997858,-0.05047885,0.
 00953792,-0.02107794,0.00521351,0.00263833,-0.00080326,0.00110570,0.00
 662681,-0.00002847,-0.00120415,0.00036806,-0.01096949,0.04504718,-0.00
 083009,-0.00007216,0.00009324,-0.00016910,-0.00012789,0.00003087,0.000
 30243,-0.00017846,0.00000354,0.00003789,0.00031429,0.00001858,-0.00009
 812,-0.00000835,0.00001252,0.00001545,0.00002941,0.00002307,0.00000072
 ,-0.00002475,-0.00000463,-0.00002956,0.00001126,0.00001202,0.00004134,
 -0.00004751,-0.00001581,0.00003888,0.00002572,0.00001279,0.00002454,0.
 00007966,0.00010041,-0.00000165,0.00000048,-0.00000024,-0.00000663,0.0
 0000151,-0.00000444,-0.00000059,0.00000012,-0.00000336,-0.00000247,-0.
 00000028,-0.00000006,-0.00000782,0.00001488,-0.00002499,-0.00142331,-0
 .00190667,-0.00129657,0.00047748,0.00021861,-0.00000032,-0.00044029,0.
 00451645,0.00148180,-0.01526680,0.00084249,0.00515828,0.04251423,0.009
 00249,-0.05160831,0.02056961,-0.00108726,0.00142322,0.00179375,0.00682
 496,0.00263824,-0.00016371,-0.00003235,-0.00070889,-0.04729829,-0.0148
 0399,0.04579662,0.00002489,0.00024072,-0.00038221,-0.00032702,-0.00010
 240,0.00014990,0.00022935,-0.00030961,0.00009425,-0.00001658,0.0000173
 2,-0.00001769,0.00003926,-0.00004768,-0.00002707,-0.00004047,-0.000010
 55,-0.00000207,-0.00000107,0.00003763,0.00001849,0.00006450,0.00000274
 ,-0.00002407,-0.00003296,0.00002758,-0.00005975,0.00000501,0.00001972,
 0.00000483,0.00004117,-0.00005690,0.00003271,0.00000166,0.00000163,0.0
 0000588,-0.00000326,0.00000288,0.00000050,-0.00000537,0.00000311,0.000
 00306,-0.00000309,-0.00000289,0.00000043,0.00000453,0.00001705,0.00004
 417,0.00056224,-0.00003423,-0.00003264,-0.00001157,0.00001974,0.000016
 24,-0.00036802,-0.00093778,0.00076123,-0.00064834,-0.00159828,0.003149
 50,0.01173341,-0.01062361,0.00764458,-0.14442900,0.10871831,-0.0732915
 8,-0.01100564,0.02191018,-0.01640815,-0.00542221,-0.00018073,0.0024277
 9,0.00065659,-0.00013879,-0.00090103,0.14861104,-0.00002924,-0.0002057
 1,-0.00056078,-0.00020338,0.00003811,0.00011107,-0.00013842,-0.0005802
 5,-0.00007767,-0.00003819,0.00000530,-0.00001016,0.00001746,0.00000809
 ,-0.00000337,0.00001223,0.00000032,0.00000112,0.00001091,-0.00001162,-
 0.00000540,-0.00001340,0.00000160,0.00000278,0.00005109,0.00000141,0.0
 0001842,0.00001546,0.00003110,0.00006192,0.00005785,-0.00008071,0.0000
 2950,-0.00000245,0.00000216,0.00000117,0.00000520,-0.00000384,0.000000
 09,0.00000394,-0.00000114,-0.00000046,0.00000297,0.00000198,0.00000101
 ,0.00000201,-0.00001106,-0.00000771,0.00087603,-0.00017560,0.00012128,
 -0.00002482,0.00006265,0.00010166,-0.00049105,-0.00027564,-0.00031625,
 -0.00219920,0.00256459,0.00626375,0.01291850,-0.00971363,0.00907084,0.
 10817065,-0.18321124,0.10455199,-0.00126697,0.00253274,0.00018606,0.00
 032466,0.00336223,0.00193776,-0.00068074,-0.00152901,-0.00287829,-0.11
 728087,0.18800683,-0.00013083,-0.00060381,-0.00035338,0.00019221,0.000
 05931,0.00004435,0.00004882,-0.00002561,-0.00064020,0.00002322,0.00002
 857,-0.00004319,-0.00003957,-0.00001023,0.00000447,0.00001709,0.000004
 81,0.00000016,-0.00001061,-0.00001458,-0.00000709,-0.00001685,0.000002
 22,0.00001207,0.00002219,0.00002949,0.00002459,-0.00000351,0.00006219,
 0.00006133,-0.00006325,0.00005977,-0.00006071,0.00000493,-0.00000196,-
 0.00000409,-0.00000394,0.00000118,0.00000059,-0.00000138,-0.00000084,-
 0.00000058,-0.00000680,-0.00000157,0.00000139,0.00001504,-0.00000539,-
 0.00000099,-0.00086564,0.00035923,-0.00003495,0.00005568,0.00008197,0.
 00009219,0.00044467,-0.00019715,-0.00067971,0.00346049,0.00619187,0.00
 367513,-0.01259505,0.01315102,-0.00535342,-0.07273917,0.10464642,-0.11
 380043,0.00350462,-0.00416357,0.00539452,0.00193895,0.00203680,0.00357
 589,-0.00038511,-0.00297784,-0.00247549,0.07767796,-0.11703138,0.11166
 484,0.00070948,0.00011517,-0.00020537,0.00013967,0.00018887,-0.0003116
 7,-0.00031772,0.00014637,-0.00005339,0.00006030,0.00000897,0.00004502,
 -0.00001176,-0.00000635,-0.00000026,-0.00000634,-0.00000108,0.00000153
 ,-0.00001758,0.00000773,0.00000891,-0.00000336,-0.00000844,0.00001271,
 -0.00001543,0.00000315,0.00000008,0.00004597,0.00006839,-0.00005413,0.
 00000814,-0.00000236,0.00001889,-0.00000121,0.00000024,-0.00000119,-0.
 00000211,-0.00000051,-0.00000179,0.00000010,0.00000120,-0.00000289,-0.
 00000851,0.00000018,-0.00001110,0.00001296,0.00000094,-0.00001199,0.00
 010876,-0.00046684,0.00018386,0.00004707,0.00005598,-0.00004555,-0.001
 56360,0.00361329,-0.00100425,-0.00061273,0.00084979,-0.00071064,-0.005
 68530,0.00164314,0.00076933,-0.00789416,-0.02078663,0.02043436,-0.1121
 8688,-0.07584405,0.08209111,0.01144363,0.01229593,-0.01244647,-0.00056
 712,-0.00106777,0.00094294,0.00095220,0.00002657,-0.00075227,0.1146224
 0,-0.00089343,0.00002858,0.00030530,0.00000608,-0.00068461,-0.00006454
 ,0.00035245,-0.00002656,0.00008636,-0.00014427,0.00013446,0.00015784,0
 .00006251,-0.00002392,0.00000726,-0.00004173,-0.00002226,-0.00003252,0
 .00002093,0.00004681,0.00001382,0.00006683,-0.00000351,-0.00002873,-0.
 00004971,0.00000909,-0.00009630,-0.00006272,-0.00009837,0.00004227,0.0
 0000448,0.00003280,0.00006420,-0.00000830,-0.00000323,0.00001820,0.000
 00841,-0.00000524,-0.00000056,0.00000594,-0.00000306,0.00000967,0.0000
 1150,0.00000272,0.00000335,-0.00003846,-0.00000398,0.00002871,-0.00014
 513,-0.00009855,-0.00069171,-0.00001883,0.00000661,0.00004042,0.004038
 53,0.00198306,0.00574937,0.00051229,-0.00054696,-0.00030152,0.00114930
 ,0.00336713,0.00180991,0.00182028,0.00422536,-0.00188546,-0.07479041,-
 0.16338832,0.12591254,-0.01096364,-0.00900504,0.01358845,0.00018397,0.
 00014741,-0.00004874,-0.00071221,-0.00083329,-0.00151769,0.08007674,0.
 16649405,0.00066300,0.00041377,-0.00026779,-0.00038032,-0.00017944,-0.
 00048397,0.00004054,-0.00002161,0.00011721,0.00009762,0.00015005,0.000
 12391,-0.00000456,-0.00005702,0.00000322,-0.00006166,-0.00003054,-0.00
 001917,-0.00003729,0.00006536,0.00003286,0.00007977,-0.00002376,-0.000
 00831,-0.00013608,0.00006178,-0.00007688,0.00002782,0.00003891,-0.0000
 6124,0.00001835,0.00005650,0.00005126,0.00000303,-0.00001330,-0.000001
 07,-0.00000719,0.00000119,-0.00000330,-0.00000243,0.00000004,0.0000024
 1,-0.00002045,0.00000070,-0.00001668,0.00000237,0.00003173,0.00000258,
 -0.00001650,-0.00038010,-0.00057550,0.00001793,0.00002583,0.00002629,-
 0.00154608,0.00525724,0.00495812,-0.00037711,-0.00060711,-0.00012813,0
 .00129019,0.00179412,0.00369320,-0.00020313,0.00257004,0.00033775,0.08
 208029,0.12584454,-0.16516133,0.00783285,0.00952808,-0.00612265,-0.000
 02045,0.00021122,-0.00007175,-0.00011481,-0.00161359,-0.00123460,-0.08
 846808,-0.14008767,0.16736716,-0.00075310,0.00063967,-0.00099330,-0.00
 020256,-0.00015263,0.00012609,0.00018025,-0.00016542,0.00006529,-0.000
 01708,0.00164270,-0.00123889,0.00077017,-0.00068390,-0.00015246,-0.000
 65672,-0.00020471,-0.00002473,-0.00005989,0.00059546,0.00036478,0.0004
 2641,-0.00023265,-0.00030360,-0.00168845,0.00078009,-0.00257491,0.0000
 2545,-0.00004354,0.00006101,0.00001345,-0.00001247,0.00001746,0.000003
 33,-0.00002307,0.00001585,-0.00000658,-0.00000570,-0.00002714,0.000000
 62,0.00000418,0.00002464,0.00000504,-0.00001027,-0.00002350,-0.0001360
 4,0.00033826,-0.00002366,-0.00053335,0.00049591,-0.00026487,-0.0000650
 0,-0.00013472,0.00009612,-0.00925468,0.00086293,0.00184380,0.00115529,
 -0.00118924,0.00204520,0.00067344,-0.00008288,-0.00022814,0.00043001,0
 .00324112,-0.00114658,-0.01221462,-0.00075956,0.00415958,-0.33642439,0
 .01350284,0.05315157,-0.00011652,-0.00008876,-0.00011978,-0.00061125,-
 0.00012680,0.00020809,0.00074311,-0.00045142,-0.00075761,0.35831365,-0
 .00050288,-0.00042952,-0.00191722,0.00000940,-0.00006290,-0.00008243,-
 0.00004072,-0.00011284,-0.00018245,0.00030482,-0.00094927,0.00095645,0
 .00006552,-0.00012676,-0.00020291,0.00011992,-0.00008483,0.00001297,-0
 .00001090,-0.00003903,0.00000923,0.00002349,0.00001372,0.00008237,0.00
 086295,0.00009267,0.00097384,0.00001979,0.00009807,0.00015595,0.000044
 24,0.00001118,0.00004614,-0.00001215,0.00001080,0.00000141,-0.00000673
 ,0.00000004,0.00001199,-0.00000979,0.00000430,-0.00003052,-0.00006127,
 -0.00001075,-0.00002566,0.00000282,0.00007443,-0.00040423,-0.00103882,
 0.00031742,-0.00007628,-0.00015018,-0.00012598,0.00031686,-0.02004644,
 0.00500146,0.00304386,-0.00055498,-0.00060977,0.00496218,-0.00011664,-
 0.00084617,0.00009105,0.00258870,0.00110588,0.00641523,0.02220385,0.00
 349354,-0.00354134,0.01405676,-0.05038292,0.00731163,-0.00011470,-0.00
 041139,-0.00066560,0.00101795,0.00001364,-0.00016321,-0.00091863,-0.00
 173116,-0.00303693,-0.01773538,0.04568614,-0.00018630,-0.00158818,-0.0
 0117933,-0.00040487,-0.00021990,0.00024390,0.00024696,-0.00025872,-0.0
 0017209,0.00002855,0.00100335,-0.00090643,-0.00031247,-0.00000378,0.00
 010948,0.00025594,-0.00002629,-0.00006223,-0.00000213,-0.00019969,-0.0
 0009240,-0.00036974,-0.00004210,0.00005022,-0.00120777,0.00084390,-0.0
 0105949,-0.00000499,0.00014022,0.00012409,-0.00003398,0.00003710,0.000
 01551,0.00002560,-0.00009128,-0.00002310,0.00000248,-0.00001471,-0.000
 01619,0.00003939,-0.00004275,-0.00000301,-0.00000396,0.00000573,0.0000
 3258,-0.00016587,-0.00000606,-0.00087860,0.00108369,-0.00015084,0.0001
 1169,0.00018627,0.00033087,-0.00009100,0.01960546,-0.00245551,0.001458
 38,0.00125276,0.00495516,0.00050612,-0.00026974,0.00043913,-0.00116253
 ,-0.00100030,0.00608338,0.00370767,-0.01576306,0.00123947,0.00683079,0
 .05256595,0.00773346,-0.05631242,-0.00006944,-0.00061201,-0.00059035,-
 0.00077045,0.00004465,0.00013732,-0.00042768,-0.00308221,-0.00248359,-
 0.05430028,-0.01406238,0.05170501\\-0.00001621,0.00000807,-0.00003035,
 -0.00001778,-0.00002837,0.00003175,0.00003153,-0.00001485,0.00001460,0
 .00000044,0.00003043,0.00002050,0.00002026,-0.00002094,-0.00000838,-0.
 00002009,-0.00001489,-0.00000650,0.00001158,0.00002090,0.00000266,0.00
 002282,-0.00000624,-0.00000592,-0.00001746,-0.00001120,-0.00000653,0.0
 0000010,0.00001168,-0.00000626,-0.00000243,0.00001042,-0.00000277,-0.0
 0000108,0.00000277,0.00000157,-0.00000304,0.00000167,-0.00000108,-0.00
 000561,-0.00000140,-0.00000142,-0.00000385,0.00000024,-0.00000368,0.00
 000420,0.00000168,-0.00000161,0.00001218,0.00003243,-0.00003194,-0.000
 00151,-0.00000270,0.00000613,0.00004234,-0.00000981,-0.00000540,-0.000
 06004,0.00000034,0.00001738,0.00001649,-0.00002199,0.00002007,0.000009
 52,0.00001693,-0.00001600,-0.00001161,0.00002316,-0.00002122,-0.000001
 91,-0.00000912,0.00002178,-0.00000450,0.00000363,-0.00000017,-0.000004
 46,-0.00001127,0.00001005,0.00000059,-0.00001153,0.00000592,-0.0000004
 6,-0.00000004,-0.00000319\\\@
 The archive entry for this job was punched.


 THERE IS NO CURE FOR BIRTH AND DEATH SAVE TO ENJOY THE INTERVAL.

                               -- GEORGE SANTAYANA
 Job cpu time:       1 days 15 hours  7 minutes 59.7 seconds.
 Elapsed time:       0 days  1 hours 14 minutes 28.1 seconds.
 File lengths (MBytes):  RWF=    674 Int=      0 D2E=      0 Chk=     27 Scr=      1
 Normal termination of Gaussian 16 at Tue Oct 31 20:49:47 2023.
