 Entering Gaussian System, Link 0=g16
 Input=2naphth_idp_1_1_m062x.com
 Output=2naphth_idp_1_1_m062x.log
 Initial command:
 /arc/software/Gaussian/g16.c01/l1.exe "/tmp/Gau-53030.inp" -scrdir="/tmp/"
 Entering Link 1 = /arc/software/Gaussian/g16.c01/l1.exe PID=     53032.
  
 Copyright (c) 1988-2019, Gaussian, Inc.  All Rights Reserved.
  
 This is part of the Gaussian(R) 16 program.  It is based on
 the Gaussian(R) 09 system (copyright 2009, Gaussian, Inc.),
 the Gaussian(R) 03 system (copyright 2003, Gaussian, Inc.),
 the Gaussian(R) 98 system (copyright 1998, Gaussian, Inc.),
 the Gaussian(R) 94 system (copyright 1995, Gaussian, Inc.),
 the Gaussian 92(TM) system (copyright 1992, Gaussian, Inc.),
 the Gaussian 90(TM) system (copyright 1990, Gaussian, Inc.),
 the Gaussian 88(TM) system (copyright 1988, Gaussian, Inc.),
 the Gaussian 86(TM) system (copyright 1986, Carnegie Mellon
 University), and the Gaussian 82(TM) system (copyright 1983,
 Carnegie Mellon University). Gaussian is a federally registered
 trademark of Gaussian, Inc.
  
 This software contains proprietary and confidential information,
 including trade secrets, belonging to Gaussian, Inc.
  
 This software is provided under written license and may be
 used, copied, transmitted, or stored only in accord with that
 written license.
  
 The following legend is applicable only to US Government
 contracts under FAR:
  
                    RESTRICTED RIGHTS LEGEND
  
 Use, reproduction and disclosure by the US Government is
 subject to restrictions as set forth in subparagraphs (a)
 and (c) of the Commercial Computer Software - Restricted
 Rights clause in FAR 52.227-19.
  
 Gaussian, Inc.
 340 Quinnipiac St., Bldg. 40, Wallingford CT 06492
  
  
 ---------------------------------------------------------------
 Warning -- This program may not be used in any manner that
 competes with the business of Gaussian, Inc. or will provide
 assistance to any competitor of Gaussian, Inc.  The licensee
 of this program is prohibited from giving any competitor of
 Gaussian, Inc. access to this program.  By using this program,
 the user acknowledges that Gaussian, Inc. is engaged in the
 business of creating and licensing software in the field of
 computational chemistry and represents and warrants to the
 licensee that it is not a competitor of Gaussian, Inc. and that
 it will not use this program in any manner prohibited above.
 ---------------------------------------------------------------
  

 Cite this work as:
 Gaussian 16, Revision C.01,
 M. J. Frisch, G. W. Trucks, H. B. Schlegel, G. E. Scuseria, 
 M. A. Robb, J. R. Cheeseman, G. Scalmani, V. Barone, 
 G. A. Petersson, H. Nakatsuji, X. Li, M. Caricato, A. V. Marenich, 
 J. Bloino, B. G. Janesko, R. Gomperts, B. Mennucci, H. P. Hratchian, 
 J. V. Ortiz, A. F. Izmaylov, J. L. Sonnenberg, D. Williams-Young, 
 F. Ding, F. Lipparini, F. Egidi, J. Goings, B. Peng, A. Petrone, 
 T. Henderson, D. Ranasinghe, V. G. Zakrzewski, J. Gao, N. Rega, 
 G. Zheng, W. Liang, M. Hada, M. Ehara, K. Toyota, R. Fukuda, 
 J. Hasegawa, M. Ishida, T. Nakajima, Y. Honda, O. Kitao, H. Nakai, 
 T. Vreven, K. Throssell, J. A. Montgomery, Jr., J. E. Peralta, 
 F. Ogliaro, M. J. Bearpark, J. J. Heyd, E. N. Brothers, K. N. Kudin, 
 V. N. Staroverov, T. A. Keith, R. Kobayashi, J. Normand, 
 K. Raghavachari, A. P. Rendell, J. C. Burant, S. S. Iyengar, 
 J. Tomasi, M. Cossi, J. M. Millam, M. Klene, C. Adamo, R. Cammi, 
 J. W. Ochterski, R. L. Martin, K. Morokuma, O. Farkas, 
 J. B. Foresman, and D. J. Fox, Gaussian, Inc., Wallingford CT, 2019.
 
 ******************************************
 Gaussian 16:  ES64L-G16RevC.01  3-Jul-2019
                31-Oct-2023 
 ******************************************
 %nprocshared=32
 Will use up to   32 processors via shared memory.
 %mem=8000MB
 %chk=2naphth_idp_1_1_m062x.chk
 -----------------------------------------
 # opt freq=noraman m062x def2tzvp pop=nbo
 -----------------------------------------
 1/18=20,19=15,26=3,38=1/1,3;
 2/9=110,12=2,17=6,18=5,40=1/2;
 3/5=44,7=101,11=2,25=1,30=1,71=1,74=-55/1,2,3;
 4//1;
 5/5=2,38=5/2;
 6/7=2,8=2,9=2,10=2,28=1,40=1/1,7;
 7//1,2,3,16;
 1/18=20,19=15,26=3/3(2);
 2/9=110/2;
 99//99;
 2/9=110/2;
 3/5=44,7=101,11=2,25=1,30=1,71=1,74=-55/1,2,3;
 4/5=5,16=3,69=1/1;
 5/5=2,38=5/2;
 7//1,2,3,16;
 1/18=20,19=15,26=3/3(-5);
 2/9=110/2;
 6/7=2,8=2,9=2,10=2,19=2,28=1,40=1/1,7;
 99/9=1/99;
 ------------
 Structure697
 ------------
 Symbolic Z-matrix:
 Charge =  0 Multiplicity = 1
 C                     0.0208    0.0337    0.1252 
 C                    -0.68     -1.0336    0.6923 
 C                    -2.0708   -1.0322    0.768 
 C                    -0.6978    1.1236   -0.3763 
 C                     1.5078    0.0122    0.0561 
 C                     2.1825   -1.1317   -0.3875 
 C                     3.5736   -1.1537   -0.4536 
 C                     4.299    -0.0274   -0.0737 
 C                     3.6442    1.1184    0.3705 
 C                     2.2529    1.136     0.4337 
 H                    -0.1346   -1.8762    1.092 
 H                    -2.5918   -1.8667    1.2139 
 H                    -0.1731    1.9529   -0.827 
 H                     1.6241   -2.0048   -0.6927 
 H                     4.0861   -2.0394   -0.8002 
 H                     5.3784   -0.0428   -0.1238 
 H                     4.2116    1.9888    0.6669 
 H                     1.7502    2.0242    0.7882 
 C                    -2.8122    0.0625    0.2649 
 C                    -2.113     1.161    -0.3189 
 C                    -2.8531    2.2583   -0.8259 
 C                    -4.2444    2.2628   -0.7527 
 C                    -4.9256    1.1923   -0.1822 
 C                    -4.2276    0.0982    0.3244 
 H                    -2.3294    3.0922   -1.2703 
 H                    -4.8002    3.1038   -1.1418 
 H                    -6.0049    1.2109   -0.1329 
 H                    -4.7617   -0.7305    0.7658 
 

 GradGradGradGradGradGradGradGradGradGradGradGradGradGradGradGradGradGrad
 Berny optimization.
 Initialization pass.
                           ----------------------------
                           !    Initial Parameters    !
                           ! (Angstroms and Degrees)  !
 --------------------------                            --------------------------
 ! Name  Definition              Value          Derivative Info.                !
 --------------------------------------------------------------------------------
 ! R1    R(1,2)                  1.3971         estimate D2E/DX2                !
 ! R2    R(1,4)                  1.3985         estimate D2E/DX2                !
 ! R3    R(1,5)                  1.4888         estimate D2E/DX2                !
 ! R4    R(2,3)                  1.3929         estimate D2E/DX2                !
 ! R5    R(2,11)                 1.0804         estimate D2E/DX2                !
 ! R6    R(3,12)                 1.0801         estimate D2E/DX2                !
 ! R7    R(3,19)                 1.4146         estimate D2E/DX2                !
 ! R8    R(4,13)                 1.0799         estimate D2E/DX2                !
 ! R9    R(4,20)                 1.4169         estimate D2E/DX2                !
 ! R10   R(5,6)                  1.4002         estimate D2E/DX2                !
 ! R11   R(5,10)                 1.4002         estimate D2E/DX2                !
 ! R12   R(6,7)                  1.3928         estimate D2E/DX2                !
 ! R13   R(6,14)                 1.0804         estimate D2E/DX2                !
 ! R14   R(7,8)                  1.3925         estimate D2E/DX2                !
 ! R15   R(7,15)                 1.0804         estimate D2E/DX2                !
 ! R16   R(8,9)                  1.3925         estimate D2E/DX2                !
 ! R17   R(8,16)                 1.0807         estimate D2E/DX2                !
 ! R18   R(9,10)                 1.3928         estimate D2E/DX2                !
 ! R19   R(9,17)                 1.0805         estimate D2E/DX2                !
 ! R20   R(10,18)                1.0804         estimate D2E/DX2                !
 ! R21   R(19,20)                1.427          estimate D2E/DX2                !
 ! R22   R(19,24)                1.4171         estimate D2E/DX2                !
 ! R23   R(20,21)                1.4173         estimate D2E/DX2                !
 ! R24   R(21,22)                1.3932         estimate D2E/DX2                !
 ! R25   R(21,25)                1.0803         estimate D2E/DX2                !
 ! R26   R(22,23)                1.3912         estimate D2E/DX2                !
 ! R27   R(22,26)                1.0806         estimate D2E/DX2                !
 ! R28   R(23,24)                1.3932         estimate D2E/DX2                !
 ! R29   R(23,27)                1.0806         estimate D2E/DX2                !
 ! R30   R(24,28)                1.0802         estimate D2E/DX2                !
 ! A1    A(2,1,4)              118.8938         estimate D2E/DX2                !
 ! A2    A(2,1,5)              120.5859         estimate D2E/DX2                !
 ! A3    A(4,1,5)              120.5203         estimate D2E/DX2                !
 ! A4    A(1,2,3)              121.4777         estimate D2E/DX2                !
 ! A5    A(1,2,11)             119.5223         estimate D2E/DX2                !
 ! A6    A(3,2,11)             118.9966         estimate D2E/DX2                !
 ! A7    A(2,3,12)             120.2186         estimate D2E/DX2                !
 ! A8    A(2,3,19)             120.3162         estimate D2E/DX2                !
 ! A9    A(12,3,19)            119.465          estimate D2E/DX2                !
 ! A10   A(1,4,13)             119.9001         estimate D2E/DX2                !
 ! A11   A(1,4,20)             121.2842         estimate D2E/DX2                !
 ! A12   A(13,4,20)            118.8127         estimate D2E/DX2                !
 ! A13   A(1,5,6)              120.5174         estimate D2E/DX2                !
 ! A14   A(1,5,10)             120.4899         estimate D2E/DX2                !
 ! A15   A(6,5,10)             118.9928         estimate D2E/DX2                !
 ! A16   A(5,6,7)              120.6107         estimate D2E/DX2                !
 ! A17   A(5,6,14)             120.0436         estimate D2E/DX2                !
 ! A18   A(7,6,14)             119.3425         estimate D2E/DX2                !
 ! A19   A(6,7,8)              119.6405         estimate D2E/DX2                !
 ! A20   A(6,7,15)             120.1286         estimate D2E/DX2                !
 ! A21   A(8,7,15)             120.2307         estimate D2E/DX2                !
 ! A22   A(7,8,9)              120.5053         estimate D2E/DX2                !
 ! A23   A(7,8,16)             119.7452         estimate D2E/DX2                !
 ! A24   A(9,8,16)             119.7496         estimate D2E/DX2                !
 ! A25   A(8,9,10)             119.6433         estimate D2E/DX2                !
 ! A26   A(8,9,17)             120.2283         estimate D2E/DX2                !
 ! A27   A(10,9,17)            120.1283         estimate D2E/DX2                !
 ! A28   A(5,10,9)             120.6075         estimate D2E/DX2                !
 ! A29   A(5,10,18)            120.0455         estimate D2E/DX2                !
 ! A30   A(9,10,18)            119.3437         estimate D2E/DX2                !
 ! A31   A(3,19,20)            118.9729         estimate D2E/DX2                !
 ! A32   A(3,19,24)            121.8726         estimate D2E/DX2                !
 ! A33   A(20,19,24)           119.1545         estimate D2E/DX2                !
 ! A34   A(4,20,19)            119.0551         estimate D2E/DX2                !
 ! A35   A(4,20,21)            121.8372         estimate D2E/DX2                !
 ! A36   A(19,20,21)           119.1077         estimate D2E/DX2                !
 ! A37   A(20,21,22)           120.3417         estimate D2E/DX2                !
 ! A38   A(20,21,25)           119.4463         estimate D2E/DX2                !
 ! A39   A(22,21,25)           120.212          estimate D2E/DX2                !
 ! A40   A(21,22,23)           120.5324         estimate D2E/DX2                !
 ! A41   A(21,22,26)           119.8181         estimate D2E/DX2                !
 ! A42   A(23,22,26)           119.6495         estimate D2E/DX2                !
 ! A43   A(22,23,24)           120.5366         estimate D2E/DX2                !
 ! A44   A(22,23,27)           119.6385         estimate D2E/DX2                !
 ! A45   A(24,23,27)           119.8248         estimate D2E/DX2                !
 ! A46   A(19,24,23)           120.327          estimate D2E/DX2                !
 ! A47   A(19,24,28)           119.4511         estimate D2E/DX2                !
 ! A48   A(23,24,28)           120.2219         estimate D2E/DX2                !
 ! D1    D(4,1,2,3)             -0.049          estimate D2E/DX2                !
 ! D2    D(4,1,2,11)          -179.3759         estimate D2E/DX2                !
 ! D3    D(5,1,2,3)            179.9228         estimate D2E/DX2                !
 ! D4    D(5,1,2,11)             0.5959         estimate D2E/DX2                !
 ! D5    D(2,1,4,13)          -179.3903         estimate D2E/DX2                !
 ! D6    D(2,1,4,20)            -0.0269         estimate D2E/DX2                !
 ! D7    D(5,1,4,13)             0.6378         estimate D2E/DX2                !
 ! D8    D(5,1,4,20)          -179.9988         estimate D2E/DX2                !
 ! D9    D(2,1,5,6)             46.3192         estimate D2E/DX2                !
 ! D10   D(2,1,5,10)          -133.6888         estimate D2E/DX2                !
 ! D11   D(4,1,5,6)           -133.7094         estimate D2E/DX2                !
 ! D12   D(4,1,5,10)            46.2826         estimate D2E/DX2                !
 ! D13   D(1,2,3,12)          -179.7815         estimate D2E/DX2                !
 ! D14   D(1,2,3,19)             0.0691         estimate D2E/DX2                !
 ! D15   D(11,2,3,12)           -0.4512         estimate D2E/DX2                !
 ! D16   D(11,2,3,19)          179.3995         estimate D2E/DX2                !
 ! D17   D(2,3,19,20)           -0.0131         estimate D2E/DX2                !
 ! D18   D(2,3,19,24)          179.9782         estimate D2E/DX2                !
 ! D19   D(12,3,19,20)         179.8387         estimate D2E/DX2                !
 ! D20   D(12,3,19,24)          -0.17           estimate D2E/DX2                !
 ! D21   D(1,4,20,19)            0.0809         estimate D2E/DX2                !
 ! D22   D(1,4,20,21)         -179.8728         estimate D2E/DX2                !
 ! D23   D(13,4,20,19)         179.451          estimate D2E/DX2                !
 ! D24   D(13,4,20,21)          -0.5026         estimate D2E/DX2                !
 ! D25   D(1,5,6,7)            179.9654         estimate D2E/DX2                !
 ! D26   D(1,5,6,14)             0.6244         estimate D2E/DX2                !
 ! D27   D(10,5,6,7)            -0.0268         estimate D2E/DX2                !
 ! D28   D(10,5,6,14)         -179.3677         estimate D2E/DX2                !
 ! D29   D(1,5,10,9)           179.9758         estimate D2E/DX2                !
 ! D30   D(1,5,10,18)            0.637          estimate D2E/DX2                !
 ! D31   D(6,5,10,9)            -0.032          estimate D2E/DX2                !
 ! D32   D(6,5,10,18)         -179.3708         estimate D2E/DX2                !
 ! D33   D(5,6,7,8)              0.0524         estimate D2E/DX2                !
 ! D34   D(5,6,7,15)          -179.796          estimate D2E/DX2                !
 ! D35   D(14,6,7,8)           179.3979         estimate D2E/DX2                !
 ! D36   D(14,6,7,15)           -0.4504         estimate D2E/DX2                !
 ! D37   D(6,7,8,9)             -0.0195         estimate D2E/DX2                !
 ! D38   D(6,7,8,16)           179.9667         estimate D2E/DX2                !
 ! D39   D(15,7,8,9)           179.8287         estimate D2E/DX2                !
 ! D40   D(15,7,8,16)           -0.1851         estimate D2E/DX2                !
 ! D41   D(7,8,9,10)            -0.0386         estimate D2E/DX2                !
 ! D42   D(7,8,9,17)           179.8215         estimate D2E/DX2                !
 ! D43   D(16,8,9,10)          179.9752         estimate D2E/DX2                !
 ! D44   D(16,8,9,17)           -0.1647         estimate D2E/DX2                !
 ! D45   D(8,9,10,5)             0.0645         estimate D2E/DX2                !
 ! D46   D(8,9,10,18)          179.4079         estimate D2E/DX2                !
 ! D47   D(17,9,10,5)         -179.7957         estimate D2E/DX2                !
 ! D48   D(17,9,10,18)          -0.4523         estimate D2E/DX2                !
 ! D49   D(3,19,20,4)           -0.06           estimate D2E/DX2                !
 ! D50   D(3,19,20,21)         179.895          estimate D2E/DX2                !
 ! D51   D(24,19,20,4)         179.9485         estimate D2E/DX2                !
 ! D52   D(24,19,20,21)         -0.0966         estimate D2E/DX2                !
 ! D53   D(3,19,24,23)        -179.939          estimate D2E/DX2                !
 ! D54   D(3,19,24,28)           0.0427         estimate D2E/DX2                !
 ! D55   D(20,19,24,23)          0.0522         estimate D2E/DX2                !
 ! D56   D(20,19,24,28)       -179.966          estimate D2E/DX2                !
 ! D57   D(4,20,21,22)        -179.9706         estimate D2E/DX2                !
 ! D58   D(4,20,21,25)           0.0406         estimate D2E/DX2                !
 ! D59   D(19,20,21,22)          0.0758         estimate D2E/DX2                !
 ! D60   D(19,20,21,25)       -179.913          estimate D2E/DX2                !
 ! D61   D(20,21,22,23)         -0.0089         estimate D2E/DX2                !
 ! D62   D(20,21,22,26)        179.9946         estimate D2E/DX2                !
 ! D63   D(25,21,22,23)        179.9798         estimate D2E/DX2                !
 ! D64   D(25,21,22,26)         -0.0166         estimate D2E/DX2                !
 ! D65   D(21,22,23,24)         -0.0374         estimate D2E/DX2                !
 ! D66   D(21,22,23,27)        179.9975         estimate D2E/DX2                !
 ! D67   D(26,22,23,24)        179.9591         estimate D2E/DX2                !
 ! D68   D(26,22,23,27)         -0.006          estimate D2E/DX2                !
 ! D69   D(22,23,24,19)          0.0151         estimate D2E/DX2                !
 ! D70   D(22,23,24,28)       -179.9666         estimate D2E/DX2                !
 ! D71   D(27,23,24,19)        179.9801         estimate D2E/DX2                !
 ! D72   D(27,23,24,28)         -0.0015         estimate D2E/DX2                !
 --------------------------------------------------------------------------------
 Trust Radius=3.00D-01 FncErr=1.00D-07 GrdErr=1.00D-06 EigMax=2.50D+02 EigMin=1.00D-04
 Number of steps in this run=    160 maximum allowed number of steps=    168.
 GradGradGradGradGradGradGradGradGradGradGradGradGradGradGradGradGradGrad

                          Input orientation:                          
 ---------------------------------------------------------------------
 Center     Atomic      Atomic             Coordinates (Angstroms)
 Number     Number       Type             X           Y           Z
 ---------------------------------------------------------------------
      1          6           0        0.020800    0.033700    0.125200
      2          6           0       -0.680000   -1.033600    0.692300
      3          6           0       -2.070800   -1.032200    0.768000
      4          6           0       -0.697800    1.123600   -0.376300
      5          6           0        1.507800    0.012200    0.056100
      6          6           0        2.182500   -1.131700   -0.387500
      7          6           0        3.573600   -1.153700   -0.453600
      8          6           0        4.299000   -0.027400   -0.073700
      9          6           0        3.644200    1.118400    0.370500
     10          6           0        2.252900    1.136000    0.433700
     11          1           0       -0.134600   -1.876200    1.092000
     12          1           0       -2.591800   -1.866700    1.213900
     13          1           0       -0.173100    1.952900   -0.827000
     14          1           0        1.624100   -2.004800   -0.692700
     15          1           0        4.086100   -2.039400   -0.800200
     16          1           0        5.378400   -0.042800   -0.123800
     17          1           0        4.211600    1.988800    0.666900
     18          1           0        1.750200    2.024200    0.788200
     19          6           0       -2.812200    0.062500    0.264900
     20          6           0       -2.113000    1.161000   -0.318900
     21          6           0       -2.853100    2.258300   -0.825900
     22          6           0       -4.244400    2.262800   -0.752700
     23          6           0       -4.925600    1.192300   -0.182200
     24          6           0       -4.227600    0.098200    0.324400
     25          1           0       -2.329400    3.092200   -1.270300
     26          1           0       -4.800200    3.103800   -1.141800
     27          1           0       -6.004900    1.210900   -0.132900
     28          1           0       -4.761700   -0.730500    0.765800
 ---------------------------------------------------------------------
                    Distance matrix (angstroms):
                    1          2          3          4          5
     1  C    0.000000
     2  C    1.397087   0.000000
     3  C    2.433953   1.392859   0.000000
     4  C    1.398489   2.407433   2.800362   0.000000
     5  C    1.488760   2.506974   3.795254   2.507359   0.000000
     6  C    2.508778   3.060964   4.408587   3.658228   1.400182
     7  C    3.790424   4.406884   5.776359   4.841170   2.426241
     8  C    4.283257   5.137084   6.503263   5.136573   2.794497
     9  C    3.790221   4.840802   6.119176   4.405758   2.426259
    10  C    2.508487   3.657313   4.848425   3.059883   1.400244
    11  H    2.146292   1.080368   2.136863   3.387019   2.708620
    12  H    3.409174   2.149675   1.080119   3.880447   4.655909
    13  H    2.151188   3.388864   3.880221   1.079898   2.715070
    14  H    2.719377   2.858379   4.090462   3.908736   2.154650
    15  H    4.656262   5.094595   6.432816   5.750649   3.404401
    16  H    5.363929   6.192892   7.567351   6.192290   3.875169
    17  H    4.656035   5.750069   6.971744   5.093039   3.404491
    18  H    2.718912   3.907072   4.893059   2.856544   2.154733
    19  C    2.836589   2.435238   1.414621   2.451073   4.325336
    20  C    2.453800   2.809321   2.448113   1.416857   3.817140
    21  C    3.756692   4.226571   3.738971   2.476894   4.984008
    22  C    4.891986   5.065494   4.230141   3.744039   6.229540
    23  C    5.089570   4.872833   3.741813   4.232811   6.545079
    24  C    4.253557   3.741896   2.475151   3.741913   5.742316
    25  H    4.101863   4.857422   4.607843   2.708642   5.096061
    26  H    5.854301   6.120298   5.310693   4.619185   7.126277
    27  H    6.145037   5.837234   4.617387   5.313396   7.610076
    28  H    4.885353   4.093598   2.707761   4.610571   6.353102
                    6          7          8          9         10
     6  C    0.000000
     7  C    1.392843   0.000000
     8  C    2.407804   1.392509   0.000000
     9  C    2.788204   2.417967   1.392456   0.000000
    10  C    2.412838   2.788239   2.407796   1.392846   0.000000
    11  H    2.848184   4.081866   4.943048   4.875194   3.899598
    12  H    5.089071   6.426592   7.247349   6.964901   5.752916
    13  H    3.905991   4.881409   4.948609   4.086830   2.853448
    14  H    1.080399   2.140582   3.383543   3.868537   3.395407
    15  H    2.148938   1.080395   2.149715   3.396692   3.868630
    16  H    3.386594   2.144801   1.080672   2.144800   3.386610
    17  H    3.868660   3.396744   2.149695   1.080459   2.148989
    18  H    3.395417   3.868579   3.383536   2.140603   1.080406
    19  C    5.176753   6.540170   7.119824   6.543025   5.180360
    20  C    4.869548   6.141124   6.525807   5.798486   4.430363
    21  C    6.086178   7.285796   7.546043   6.704152   5.377489
    22  C    7.277434   8.537157   8.871062   8.049922   6.700159
    23  C    7.481190   8.821212   9.305519   8.587922   7.205093
    24  C    6.565732   7.939223   8.536812   7.937768   6.563982
    25  H    6.243229   7.317108   7.422900   6.501693   5.265720
    26  H    8.201617   9.419153   9.681978   8.805496   7.490037
    27  H    8.519749   9.871264  10.378210   9.662665   8.277554
    28  H    7.050743   8.434646   9.126631   8.615907   7.266273
                   11         12         13         14         15
    11  H    0.000000
    12  H    2.460240   0.000000
    13  H    4.283229   4.960315   0.000000
    14  H    2.508928   4.629040   4.348719   0.000000
    15  H    4.628322   6.977161   5.837805   2.464589   0.000000
    16  H    5.935713   8.284935   5.941082   4.274092   2.472644
    17  H    5.831671   7.839027   4.632345   4.948991   4.288884
    18  H    4.342567   5.845792   2.512576   4.294393   4.948968
    19  C    3.407667   2.161247   3.425012   4.987132   7.289648
    20  C    3.889639   3.427199   2.156034   4.912019   6.993072
    21  C    5.306852   4.609196   2.697345   6.183614   8.162315
    22  C    6.117573   4.863268   4.083753   7.256397   9.375949
    23  C    5.830348   4.093067   4.855979   7.306205   9.593568
    24  C    4.608700   2.707006   4.604846   6.300753   8.657463
    25  H    5.923057   5.552548   2.478739   6.476356   8.228788
    26  H    7.180396   5.927244   4.778465   8.220165  10.273048
    27  H    6.744701   4.789023   5.919648   8.297936  10.622524
    28  H    4.777980   2.490022   5.549135   6.673043   9.080151
                   16         17         18         19         20
    16  H    0.000000
    17  H    2.472656   0.000000
    18  H    4.274116   2.464641   0.000000
    19  C    8.200494   7.294244   4.993756   0.000000
    20  C    7.590011   6.454271   4.110365   1.427027   0.000000
    21  C    8.575873   7.225723   4.883697   2.452153   1.417344
    22  C    9.915119   8.578711   6.194072   2.815675   2.438239
    23  C   10.377924   9.211070   6.797061   2.437787   2.816094
    24  C    9.617484   8.655159   6.297514   1.417100   2.452532
    25  H    8.399575   6.910493   4.692673   3.430600   2.163683
    26  H   10.702398   9.258896   6.913623   3.896210   3.416530
    27  H   11.452134  10.277241   7.851844   3.416197   3.896662
    28  H   10.202252   9.376806   7.070623   2.163400   3.430737
                   21         22         23         24         25
    21  C    0.000000
    22  C    1.393232   0.000000
    23  C    2.417842   1.391213   0.000000
    24  C    2.806862   2.417834   1.393163   0.000000
    25  H    1.080344   2.150125   3.396150   3.887193   0.000000
    26  H    2.146127   1.080552   2.142519   3.392823   2.474166
    27  H    3.392807   2.142430   1.080585   2.146164   4.282787
    28  H    3.887054   3.396069   2.150053   1.080204   4.967376
                   26         27         28
    26  H    0.000000
    27  H    2.460132   0.000000
    28  H    4.282788   2.474316   0.000000
 Stoichiometry    C16H12
 Framework group  C1[X(C16H12)]
 Deg. of freedom    78
 Full point group                 C1      NOp   1
 Largest Abelian subgroup         C1      NOp   1
 Largest concise Abelian subgroup C1      NOp   1
                         Standard orientation:                         
 ---------------------------------------------------------------------
 Center     Atomic      Atomic             Coordinates (Angstroms)
 Number     Number       Type             X           Y           Z
 ---------------------------------------------------------------------
      1          6           0        0.506264    0.295423   -0.067440
      2          6           0        0.001374    1.567569   -0.347769
      3          6           0       -1.369066    1.811493   -0.397283
      4          6           0       -0.391175   -0.750846    0.168555
      5          6           0        1.975017    0.056617   -0.021157
      6          6           0        2.816466    0.933954    0.673646
      7          6           0        4.190770    0.712003    0.718813
      8          6           0        4.731841   -0.392386    0.065630
      9          6           0        3.909726   -1.274645   -0.630561
     10          6           0        2.535875   -1.049150   -0.671848
     11          1           0        0.685444    2.380984   -0.541674
     12          1           0       -1.737196    2.802361   -0.619358
     13          1           0       -0.018658   -1.738501    0.396478
     14          1           0        2.400660    1.786849    1.190306
     15          1           0        4.832444    1.392172    1.259994
     16          1           0        5.797963   -0.565917    0.099120
     17          1           0        4.334649   -2.128546   -1.138188
     18          1           0        1.903641   -1.731407   -1.221469
     19          6           0       -2.289812    0.763967   -0.160496
     20          6           0       -1.791953   -0.541791    0.128531
     21          6           0       -2.711928   -1.592956    0.368452
     22          6           0       -4.083422   -1.352519    0.320624
     23          6           0       -4.568380   -0.079692    0.037427
     24          6           0       -3.690463    0.975187   -0.202143
     25          1           0       -2.341002   -2.583330    0.589170
     26          1           0       -4.777250   -2.160152    0.504812
     27          1           0       -5.634942    0.090569    0.003939
     28          1           0       -4.072561    1.961561   -0.421024
 ---------------------------------------------------------------------
 Rotational constants (GHZ):           1.7777111           0.2636792           0.2376040
 Standard basis: def2TZVP (5D, 7F)
 There are   648 symmetry adapted cartesian basis functions of A   symmetry.
 There are   568 symmetry adapted basis functions of A   symmetry.
   568 basis functions,   912 primitive gaussians,   648 cartesian basis functions
    54 alpha electrons       54 beta electrons
       nuclear repulsion energy       928.7088618009 Hartrees.
 NAtoms=   28 NActive=   28 NUniq=   28 SFac= 1.00D+00 NAtFMM=   60 NAOKFM=F Big=F
 Integral buffers will be    131072 words long.
 Raffenetti 2 integral format.
 Two-electron integral symmetry is turned on.
 One-electron integrals computed using PRISM.
   1 Symmetry operations used in ECPInt.
 ECPInt:  NShTT=   25200 NPrTT=   77416 LenC2=   22456 LenP2D=   50792.
 LDataN:  DoStor=T MaxTD1= 6 Len=  172
 NBasis=   568 RedAO= T EigKep=  5.84D-06  NBF=   568
 NBsUse=   568 1.00D-06 EigRej= -1.00D+00 NBFU=   568
 ExpMin= 9.52D-02 ExpMax= 1.36D+04 ExpMxC= 4.63D+02 IAcc=3 IRadAn=         5 AccDes= 0.00D+00
 Harris functional with IExCor= 1009 and IRadAn=       5 diagonalized for initial guess.
 HarFok:  IExCor= 1009 AccDes= 0.00D+00 IRadAn=         5 IDoV= 1 UseB2=F ITyADJ=14
 ICtDFT=  3500011 ScaDFX=  1.000000  1.000000  1.000000  1.000000
 FoFCou: FMM=F IPFlag=           0 FMFlag=      100000 FMFlg1=           0
         NFxFlg=           0 DoJE=T BraDBF=F KetDBF=T FulRan=T
         wScrn=  0.000000 ICntrl=       500 IOpCl=  0 I1Cent=   200000004 NGrid=           0
         NMat0=    1 NMatS0=      1 NMatT0=    0 NMatD0=    1 NMtDS0=    0 NMtDT0=    0
 Petite list used in FoFCou.
 Requested convergence on RMS density matrix=1.00D-08 within 128 cycles.
 Requested convergence on MAX density matrix=1.00D-06.
 Requested convergence on             energy=1.00D-06.
 No special actions if energy rises.
 Integral accuracy reduced to 1.0D-05 until final iterations.
 Problem detected with inexpensive integrals.
 Switching to full accuracy and repeating last cycle.
 SCF Done:  E(RM062X) =  -616.899547267     A.U. after   14 cycles
            NFock= 14  Conv=0.43D-08     -V/T= 2.0054

 **********************************************************************

            Population analysis using the SCF Density.

 **********************************************************************

 Orbital symmetries:
       Occupied  (A) (A) (A) (A) (A) (A) (A) (A) (A) (A) (A) (A)
                 (A) (A) (A) (A) (A) (A) (A) (A) (A) (A) (A) (A)
                 (A) (A) (A) (A) (A) (A) (A) (A) (A) (A) (A) (A)
                 (A) (A) (A) (A) (A) (A) (A) (A) (A) (A) (A) (A)
                 (A) (A) (A) (A) (A) (A)
       Virtual   (A) (A) (A) (A) (A) (A) (A) (A) (A) (A) (A) (A)
                 (A) (A) (A) (A) (A) (A) (A) (A) (A) (A) (A) (A)
                 (A) (A) (A) (A) (A) (A) (A) (A) (A) (A) (A) (A)
                 (A) (A) (A) (A) (A) (A) (A) (A) (A) (A) (A) (A)
                 (A) (A) (A) (A) (A) (A) (A) (A) (A) (A) (A) (A)
                 (A) (A) (A) (A) (A) (A) (A) (A) (A) (A) (A) (A)
                 (A) (A) (A) (A) (A) (A) (A) (A) (A) (A) (A) (A)
                 (A) (A) (A) (A) (A) (A) (A) (A) (A) (A) (A) (A)
                 (A) (A) (A) (A) (A) (A) (A) (A) (A) (A) (A) (A)
                 (A) (A) (A) (A) (A) (A) (A) (A) (A) (A) (A) (A)
                 (A) (A) (A) (A) (A) (A) (A) (A) (A) (A) (A) (A)
                 (A) (A) (A) (A) (A) (A) (A) (A) (A) (A) (A) (A)
                 (A) (A) (A) (A) (A) (A) (A) (A) (A) (A) (A) (A)
                 (A) (A) (A) (A) (A) (A) (A) (A) (A) (A) (A) (A)
                 (A) (A) (A) (A) (A) (A) (A) (A) (A) (A) (A) (A)
                 (A) (A) (A) (A) (A) (A) (A) (A) (A) (A) (A) (A)
                 (A) (A) (A) (A) (A) (A) (A) (A) (A) (A) (A) (A)
                 (A) (A) (A) (A) (A) (A) (A) (A) (A) (A) (A) (A)
                 (A) (A) (A) (A) (A) (A) (A) (A) (A) (A) (A) (A)
                 (A) (A) (A) (A) (A) (A) (A) (A) (A) (A) (A) (A)
                 (A) (A) (A) (A) (A) (A) (A) (A) (A) (A) (A) (A)
                 (A) (A) (A) (A) (A) (A) (A) (A) (A) (A) (A) (A)
                 (A) (A) (A) (A) (A) (A) (A) (A) (A) (A) (A) (A)
                 (A) (A) (A) (A) (A) (A) (A) (A) (A) (A) (A) (A)
                 (A) (A) (A) (A) (A) (A) (A) (A) (A) (A) (A) (A)
                 (A) (A) (A) (A) (A) (A) (A) (A) (A) (A) (A) (A)
                 (A) (A) (A) (A) (A) (A) (A) (A) (A) (A) (A) (A)
                 (A) (A) (A) (A) (A) (A) (A) (A) (A) (A) (A) (A)
                 (A) (A) (A) (A) (A) (A) (A) (A) (A) (A) (A) (A)
                 (A) (A) (A) (A) (A) (A) (A) (A) (A) (A) (A) (A)
                 (A) (A) (A) (A) (A) (A) (A) (A) (A) (A) (A) (A)
                 (A) (A) (A) (A) (A) (A) (A) (A) (A) (A) (A) (A)
                 (A) (A) (A) (A) (A) (A) (A) (A) (A) (A) (A) (A)
                 (A) (A) (A) (A) (A) (A) (A) (A) (A) (A) (A) (A)
                 (A) (A) (A) (A) (A) (A) (A) (A) (A) (A) (A) (A)
                 (A) (A) (A) (A) (A) (A) (A) (A) (A) (A) (A) (A)
                 (A) (A) (A) (A) (A) (A) (A) (A) (A) (A) (A) (A)
                 (A) (A) (A) (A) (A) (A) (A) (A) (A) (A) (A) (A)
                 (A) (A) (A) (A) (A) (A) (A) (A) (A) (A) (A) (A)
                 (A) (A) (A) (A) (A) (A) (A) (A) (A) (A) (A) (A)
                 (A) (A) (A) (A) (A) (A) (A) (A) (A) (A) (A) (A)
                 (A) (A) (A) (A) (A) (A) (A) (A) (A) (A) (A) (A)
                 (A) (A) (A) (A) (A) (A) (A) (A) (A) (A)
 The electronic state is 1-A.
 Alpha  occ. eigenvalues --  -10.55594 -10.55539 -10.55426 -10.55310 -10.54797
 Alpha  occ. eigenvalues --  -10.54719 -10.54716 -10.54681 -10.54509 -10.54480
 Alpha  occ. eigenvalues --  -10.54470 -10.54457 -10.54403 -10.54386 -10.54378
 Alpha  occ. eigenvalues --  -10.54253  -0.98640  -0.96570  -0.92755  -0.87774
 Alpha  occ. eigenvalues --   -0.86368  -0.84607  -0.82690  -0.80470  -0.72482
 Alpha  occ. eigenvalues --   -0.70696  -0.69113  -0.67906  -0.66684  -0.60602
 Alpha  occ. eigenvalues --   -0.59135  -0.58015  -0.55777  -0.52882  -0.52463
 Alpha  occ. eigenvalues --   -0.51674  -0.50593  -0.49205  -0.48532  -0.48344
 Alpha  occ. eigenvalues --   -0.46704  -0.46554  -0.44561  -0.43862  -0.41515
 Alpha  occ. eigenvalues --   -0.40879  -0.39664  -0.39122  -0.38877  -0.34824
 Alpha  occ. eigenvalues --   -0.32119  -0.31120  -0.28867  -0.26066
 Alpha virt. eigenvalues --   -0.02697   0.00116   0.01765   0.03533   0.04870
 Alpha virt. eigenvalues --    0.08373   0.08516   0.09156   0.09998   0.10700
 Alpha virt. eigenvalues --    0.12176   0.12453   0.13052   0.13347   0.14225
 Alpha virt. eigenvalues --    0.14383   0.15415   0.15889   0.16221   0.18155
 Alpha virt. eigenvalues --    0.19161   0.19569   0.20075   0.20919   0.21890
 Alpha virt. eigenvalues --    0.22507   0.22854   0.24124   0.24366   0.24994
 Alpha virt. eigenvalues --    0.25712   0.25871   0.26500   0.26920   0.27616
 Alpha virt. eigenvalues --    0.28109   0.28864   0.29553   0.29630   0.30024
 Alpha virt. eigenvalues --    0.30811   0.31398   0.32268   0.32487   0.33055
 Alpha virt. eigenvalues --    0.33751   0.34514   0.35089   0.35698   0.36260
 Alpha virt. eigenvalues --    0.37275   0.37515   0.37719   0.38292   0.38909
 Alpha virt. eigenvalues --    0.39493   0.40031   0.40740   0.41038   0.41425
 Alpha virt. eigenvalues --    0.41624   0.42278   0.43654   0.44136   0.44549
 Alpha virt. eigenvalues --    0.44648   0.44813   0.45000   0.45547   0.45854
 Alpha virt. eigenvalues --    0.46650   0.47175   0.48061   0.48810   0.49545
 Alpha virt. eigenvalues --    0.50422   0.51323   0.51735   0.52088   0.53127
 Alpha virt. eigenvalues --    0.53383   0.54036   0.54199   0.55052   0.56003
 Alpha virt. eigenvalues --    0.56536   0.57480   0.58657   0.59547   0.61113
 Alpha virt. eigenvalues --    0.61896   0.62463   0.64218   0.66591   0.67120
 Alpha virt. eigenvalues --    0.68231   0.68812   0.69021   0.70280   0.71023
 Alpha virt. eigenvalues --    0.72459   0.73058   0.73254   0.73818   0.74515
 Alpha virt. eigenvalues --    0.75075   0.75617   0.75932   0.76244   0.76933
 Alpha virt. eigenvalues --    0.77714   0.77792   0.78275   0.79290   0.79884
 Alpha virt. eigenvalues --    0.81309   0.81751   0.82612   0.83668   0.85319
 Alpha virt. eigenvalues --    0.86165   0.86545   0.87143   0.88888   0.89539
 Alpha virt. eigenvalues --    0.90152   0.90914   0.91370   0.91976   0.92914
 Alpha virt. eigenvalues --    0.93054   0.94282   0.96177   0.96524   0.96969
 Alpha virt. eigenvalues --    0.98721   0.99412   1.01113   1.02510   1.02741
 Alpha virt. eigenvalues --    1.03376   1.04994   1.06249   1.07436   1.08862
 Alpha virt. eigenvalues --    1.11031   1.11790   1.14790   1.15281   1.15361
 Alpha virt. eigenvalues --    1.17024   1.17603   1.19475   1.20649   1.20980
 Alpha virt. eigenvalues --    1.22337   1.23164   1.23721   1.24420   1.24960
 Alpha virt. eigenvalues --    1.25496   1.26300   1.27257   1.27714   1.29038
 Alpha virt. eigenvalues --    1.29850   1.30979   1.31052   1.31987   1.32293
 Alpha virt. eigenvalues --    1.33563   1.36041   1.37477   1.38107   1.38968
 Alpha virt. eigenvalues --    1.39963   1.41695   1.43283   1.43685   1.44914
 Alpha virt. eigenvalues --    1.45539   1.46993   1.48007   1.49074   1.50140
 Alpha virt. eigenvalues --    1.50430   1.51187   1.53066   1.54149   1.55295
 Alpha virt. eigenvalues --    1.55371   1.55540   1.56846   1.57241   1.58436
 Alpha virt. eigenvalues --    1.59814   1.60087   1.60614   1.61091   1.63909
 Alpha virt. eigenvalues --    1.64351   1.66093   1.66644   1.67187   1.68688
 Alpha virt. eigenvalues --    1.69848   1.70989   1.72414   1.72653   1.73317
 Alpha virt. eigenvalues --    1.73539   1.74451   1.74936   1.75750   1.76260
 Alpha virt. eigenvalues --    1.76938   1.77408   1.77700   1.80269   1.81809
 Alpha virt. eigenvalues --    1.84256   1.87466   1.88320   1.89477   1.90080
 Alpha virt. eigenvalues --    1.90925   1.92106   1.93313   1.94908   1.96000
 Alpha virt. eigenvalues --    1.98720   2.00761   2.02213   2.02980   2.03962
 Alpha virt. eigenvalues --    2.04275   2.06205   2.07022   2.08489   2.09856
 Alpha virt. eigenvalues --    2.10405   2.12851   2.13851   2.14828   2.17076
 Alpha virt. eigenvalues --    2.17927   2.18731   2.20310   2.21814   2.22108
 Alpha virt. eigenvalues --    2.23107   2.24545   2.26228   2.26737   2.27419
 Alpha virt. eigenvalues --    2.27717   2.29415   2.29653   2.32925   2.35186
 Alpha virt. eigenvalues --    2.36319   2.37098   2.39329   2.42214   2.44285
 Alpha virt. eigenvalues --    2.45990   2.46676   2.47691   2.49201   2.50061
 Alpha virt. eigenvalues --    2.50780   2.52241   2.54213   2.56004   2.57000
 Alpha virt. eigenvalues --    2.58087   2.59013   2.60198   2.61319   2.61397
 Alpha virt. eigenvalues --    2.62756   2.64744   2.64912   2.65338   2.66476
 Alpha virt. eigenvalues --    2.66703   2.67443   2.68197   2.68584   2.69588
 Alpha virt. eigenvalues --    2.70334   2.71100   2.72023   2.73068   2.74350
 Alpha virt. eigenvalues --    2.74603   2.75462   2.76241   2.76345   2.77198
 Alpha virt. eigenvalues --    2.77610   2.78935   2.79139   2.79996   2.80598
 Alpha virt. eigenvalues --    2.81854   2.82955   2.83515   2.83948   2.84774
 Alpha virt. eigenvalues --    2.84869   2.85144   2.86113   2.86901   2.87704
 Alpha virt. eigenvalues --    2.88497   2.89746   2.89984   2.91665   2.92525
 Alpha virt. eigenvalues --    2.93445   2.94561   2.95390   2.95823   2.97631
 Alpha virt. eigenvalues --    2.98422   2.98691   2.99922   3.01412   3.01962
 Alpha virt. eigenvalues --    3.02865   3.05340   3.05723   3.06418   3.07036
 Alpha virt. eigenvalues --    3.07948   3.08559   3.09397   3.10507   3.12144
 Alpha virt. eigenvalues --    3.12485   3.14391   3.14784   3.15490   3.16139
 Alpha virt. eigenvalues --    3.17135   3.17785   3.17940   3.18386   3.19197
 Alpha virt. eigenvalues --    3.19577   3.20415   3.21124   3.21938   3.22943
 Alpha virt. eigenvalues --    3.24550   3.25470   3.26089   3.26477   3.27559
 Alpha virt. eigenvalues --    3.29224   3.29318   3.30579   3.31172   3.31597
 Alpha virt. eigenvalues --    3.31948   3.32791   3.33925   3.34922   3.35090
 Alpha virt. eigenvalues --    3.36305   3.36779   3.37583   3.38684   3.39574
 Alpha virt. eigenvalues --    3.40698   3.41318   3.42224   3.42648   3.44453
 Alpha virt. eigenvalues --    3.45000   3.45271   3.46534   3.47334   3.48645
 Alpha virt. eigenvalues --    3.49585   3.49896   3.50293   3.50592   3.50936
 Alpha virt. eigenvalues --    3.52221   3.53514   3.53966   3.55830   3.56358
 Alpha virt. eigenvalues --    3.57884   3.58298   3.59250   3.60492   3.62325
 Alpha virt. eigenvalues --    3.63432   3.64567   3.67423   3.68409   3.69007
 Alpha virt. eigenvalues --    3.71027   3.72676   3.75093   3.76078   3.77653
 Alpha virt. eigenvalues --    3.79694   3.81802   3.82149   3.83792   3.87316
 Alpha virt. eigenvalues --    3.89111   3.90866   3.94171   3.95235   3.95335
 Alpha virt. eigenvalues --    3.95930   3.96166   3.98679   4.01447   4.02805
 Alpha virt. eigenvalues --    4.04158   4.05155   4.06766   4.07994   4.09050
 Alpha virt. eigenvalues --    4.09269   4.10306   4.12057   4.12694   4.13901
 Alpha virt. eigenvalues --    4.14462   4.15687   4.17466   4.18290   4.18377
 Alpha virt. eigenvalues --    4.19344   4.20793   4.21361   4.22409   4.23290
 Alpha virt. eigenvalues --    4.23869   4.24074   4.25288   4.27272   4.28014
 Alpha virt. eigenvalues --    4.29740   4.31556   4.33406   4.37395   4.40309
 Alpha virt. eigenvalues --    4.43046   4.44524   4.47423   4.50564   4.51091
 Alpha virt. eigenvalues --    4.56720   4.57179   4.60233   4.61582   4.62441
 Alpha virt. eigenvalues --    4.65242   4.69652   4.71138   4.72054   4.72913
 Alpha virt. eigenvalues --    4.73030   4.75224   4.77722   4.83511   4.84632
 Alpha virt. eigenvalues --    4.87870   4.88906   4.91863   4.96808   5.02211
 Alpha virt. eigenvalues --    5.05710   5.10114   5.11727   5.15816   5.17409
 Alpha virt. eigenvalues --    5.19544   5.22624   5.26610   5.29932   5.33619
 Alpha virt. eigenvalues --    5.35852   5.42452   5.44830   5.56570   5.59047
 Alpha virt. eigenvalues --    5.61333   5.63681   5.87995  21.99975  22.31861
 Alpha virt. eigenvalues --   22.65664  22.69089  22.70794  22.71957  22.77918
 Alpha virt. eigenvalues --   22.80978  22.88169  22.92028  22.94347  22.95658
 Alpha virt. eigenvalues --   23.10377  23.16466  23.37662  23.70148
          Condensed to atoms (all electrons):
               1          2          3          4          5          6
     1  C    4.964310   0.482178  -0.047175   0.502735   0.283495  -0.081162
     2  C    0.482178   5.020704   0.521654  -0.051291  -0.086459   0.004392
     3  C   -0.047175   0.521654   5.074510  -0.082516   0.008020   0.002064
     4  C    0.502735  -0.051291  -0.082516   5.342590  -0.093437   0.006510
     5  C    0.283495  -0.086459   0.008020  -0.093437   5.004922   0.496124
     6  C   -0.081162   0.004392   0.002064   0.006510   0.496124   5.018947
     7  C    0.007199   0.001157  -0.000024  -0.001329  -0.057127   0.509775
     8  C   -0.003743   0.000170  -0.000023   0.000390  -0.039318  -0.046367
     9  C    0.008313  -0.000874   0.000073   0.001062  -0.058755  -0.042617
    10  C   -0.089672   0.007912  -0.001118   0.006643   0.501994  -0.033817
    11  H   -0.036305   0.394694  -0.022705   0.010350  -0.000532   0.002813
    12  H    0.001027  -0.019454   0.387084   0.000270  -0.000063  -0.000005
    13  H   -0.016228   0.005386  -0.000198   0.359718   0.001651   0.000295
    14  H    0.004533   0.001281   0.000516   0.000992  -0.037478   0.397996
    15  H   -0.000045   0.000018  -0.000002   0.000033   0.004302  -0.030912
    16  H    0.000096  -0.000005   0.000000  -0.000010   0.001207   0.003606
    17  H   -0.000100   0.000034  -0.000000   0.000006   0.004357   0.000116
    18  H    0.003496   0.000984  -0.000178   0.002609  -0.036567   0.005865
    19  C   -0.020402  -0.055768   0.491724  -0.073410   0.002041   0.000010
    20  C   -0.057779  -0.024599  -0.047034   0.423533   0.007704  -0.000475
    21  C    0.007782   0.001815   0.018022  -0.116988  -0.001992   0.000105
    22  C   -0.001104   0.000083  -0.001014   0.007691   0.000000  -0.000002
    23  C    0.000199  -0.000957   0.007621  -0.002286  -0.000013  -0.000000
    24  C   -0.001527   0.007137  -0.114406   0.023031  -0.000236   0.000003
    25  H    0.001264   0.000145  -0.000484  -0.004974   0.000164   0.000004
    26  H    0.000038  -0.000010   0.000080  -0.000452   0.000001   0.000000
    27  H   -0.000004   0.000029  -0.000435   0.000090   0.000000  -0.000000
    28  H    0.000064   0.000563  -0.004930  -0.000392   0.000009   0.000000
               7          8          9         10         11         12
     1  C    0.007199  -0.003743   0.008313  -0.089672  -0.036305   0.001027
     2  C    0.001157   0.000170  -0.000874   0.007912   0.394694  -0.019454
     3  C   -0.000024  -0.000023   0.000073  -0.001118  -0.022705   0.387084
     4  C   -0.001329   0.000390   0.001062   0.006643   0.010350   0.000270
     5  C   -0.057127  -0.039318  -0.058755   0.501994  -0.000532  -0.000063
     6  C    0.509775  -0.046367  -0.042617  -0.033817   0.002813  -0.000005
     7  C    4.897642   0.524890  -0.043217  -0.043400   0.000324  -0.000002
     8  C    0.524890   4.879212   0.524618  -0.046226  -0.000023   0.000000
     9  C   -0.043217   0.524618   4.899485   0.507689  -0.000163  -0.000000
    10  C   -0.043400  -0.046226   0.507689   5.018665   0.000827   0.000044
    11  H    0.000324  -0.000023  -0.000163   0.000827   0.487342  -0.002650
    12  H   -0.000002   0.000000  -0.000000   0.000044  -0.002650   0.508448
    13  H   -0.000146  -0.000022   0.000451   0.002014  -0.000270   0.000057
    14  H   -0.024873   0.003120  -0.000498   0.006185  -0.001479   0.000042
    15  H    0.407957  -0.030974   0.003376   0.000204   0.000047   0.000000
    16  H   -0.033175   0.408643  -0.033159   0.003544  -0.000000  -0.000000
    17  H    0.003463  -0.031071   0.407724  -0.030649   0.000002   0.000000
    18  H   -0.000485   0.003075  -0.025305   0.398469   0.000076   0.000003
    19  C   -0.000006   0.000003  -0.000006  -0.000015   0.002113  -0.026495
    20  C    0.000114  -0.000039  -0.000156   0.003469  -0.000609   0.010873
    21  C   -0.000002   0.000000  -0.000009   0.000285   0.000060  -0.000268
    22  C    0.000000   0.000000  -0.000000  -0.000001   0.000002  -0.000003
    23  C   -0.000000   0.000000   0.000000   0.000004   0.000023   0.000138
    24  C   -0.000000  -0.000000   0.000000   0.000001  -0.000310  -0.005858
    25  H   -0.000000  -0.000000  -0.000001   0.000048  -0.000004   0.000015
    26  H    0.000000  -0.000000  -0.000000  -0.000000   0.000000  -0.000003
    27  H    0.000000  -0.000000   0.000000  -0.000000  -0.000000  -0.000018
    28  H   -0.000000   0.000000  -0.000000   0.000000  -0.000025   0.005485
              13         14         15         16         17         18
     1  C   -0.016228   0.004533  -0.000045   0.000096  -0.000100   0.003496
     2  C    0.005386   0.001281   0.000018  -0.000005   0.000034   0.000984
     3  C   -0.000198   0.000516  -0.000002   0.000000  -0.000000  -0.000178
     4  C    0.359718   0.000992   0.000033  -0.000010   0.000006   0.002609
     5  C    0.001651  -0.037478   0.004302   0.001207   0.004357  -0.036567
     6  C    0.000295   0.397996  -0.030912   0.003606   0.000116   0.005865
     7  C   -0.000146  -0.024873   0.407957  -0.033175   0.003463  -0.000485
     8  C   -0.000022   0.003120  -0.030974   0.408643  -0.031071   0.003075
     9  C    0.000451  -0.000498   0.003376  -0.033159   0.407724  -0.025305
    10  C    0.002014   0.006185   0.000204   0.003544  -0.030649   0.398469
    11  H   -0.000270  -0.001479   0.000047  -0.000000   0.000002   0.000076
    12  H    0.000057   0.000042   0.000000  -0.000000   0.000000   0.000003
    13  H    0.478673   0.000056   0.000002   0.000000   0.000041  -0.001634
    14  H    0.000056   0.485302  -0.003336  -0.000273   0.000062  -0.000240
    15  H    0.000002  -0.003336   0.508812  -0.003909  -0.000275   0.000064
    16  H    0.000000  -0.000273  -0.003909   0.515352  -0.003920  -0.000270
    17  H    0.000041   0.000062  -0.000275  -0.003920   0.509005  -0.003344
    18  H   -0.001634  -0.000240   0.000064  -0.000270  -0.003344   0.483406
    19  C    0.007086  -0.000056   0.000000  -0.000000   0.000000  -0.000088
    20  C   -0.011249  -0.000042   0.000001   0.000000   0.000001   0.000566
    21  C   -0.002348   0.000012   0.000000  -0.000000   0.000000   0.000162
    22  C   -0.000052   0.000000  -0.000000  -0.000000   0.000000  -0.000003
    23  C    0.000065   0.000000  -0.000000   0.000000  -0.000000   0.000001
    24  C   -0.000401   0.000000   0.000000  -0.000000   0.000000   0.000001
    25  H    0.005475   0.000000   0.000000  -0.000000   0.000000   0.000031
    26  H   -0.000023   0.000000   0.000000  -0.000000   0.000000   0.000000
    27  H   -0.000002  -0.000000  -0.000000  -0.000000   0.000000  -0.000000
    28  H    0.000015   0.000000   0.000000   0.000000   0.000000   0.000000
              19         20         21         22         23         24
     1  C   -0.020402  -0.057779   0.007782  -0.001104   0.000199  -0.001527
     2  C   -0.055768  -0.024599   0.001815   0.000083  -0.000957   0.007137
     3  C    0.491724  -0.047034   0.018022  -0.001014   0.007621  -0.114406
     4  C   -0.073410   0.423533  -0.116988   0.007691  -0.002286   0.023031
     5  C    0.002041   0.007704  -0.001992   0.000000  -0.000013  -0.000236
     6  C    0.000010  -0.000475   0.000105  -0.000002  -0.000000   0.000003
     7  C   -0.000006   0.000114  -0.000002   0.000000  -0.000000  -0.000000
     8  C    0.000003  -0.000039   0.000000   0.000000   0.000000  -0.000000
     9  C   -0.000006  -0.000156  -0.000009  -0.000000   0.000000   0.000000
    10  C   -0.000015   0.003469   0.000285  -0.000001   0.000004   0.000001
    11  H    0.002113  -0.000609   0.000060   0.000002   0.000023  -0.000310
    12  H   -0.026495   0.010873  -0.000268  -0.000003   0.000138  -0.005858
    13  H    0.007086  -0.011249  -0.002348  -0.000052   0.000065  -0.000401
    14  H   -0.000056  -0.000042   0.000012   0.000000   0.000000   0.000000
    15  H    0.000000   0.000001   0.000000  -0.000000  -0.000000   0.000000
    16  H   -0.000000   0.000000  -0.000000  -0.000000   0.000000  -0.000000
    17  H    0.000000   0.000001   0.000000   0.000000  -0.000000   0.000000
    18  H   -0.000088   0.000566   0.000162  -0.000003   0.000001   0.000001
    19  C    4.774851   0.458597  -0.046476  -0.032832  -0.058228   0.493210
    20  C    0.458597   4.791875   0.486101  -0.060412  -0.034423  -0.056168
    21  C   -0.046476   0.486101   5.064601   0.548956  -0.035781  -0.079678
    22  C   -0.032832  -0.060412   0.548956   4.881065   0.487040  -0.038256
    23  C   -0.058228  -0.034423  -0.035781   0.487040   4.883504   0.547841
    24  C    0.493210  -0.056168  -0.079678  -0.038256   0.547841   5.051654
    25  H    0.010297  -0.030215   0.395486  -0.028565   0.002271   0.000350
    26  H    0.000894   0.004409  -0.032831   0.410783  -0.036112   0.004352
    27  H    0.003571   0.001103   0.004057  -0.035428   0.410039  -0.031860
    28  H   -0.030765   0.011277   0.000555   0.001874  -0.026889   0.394029
              25         26         27         28
     1  C    0.001264   0.000038  -0.000004   0.000064
     2  C    0.000145  -0.000010   0.000029   0.000563
     3  C   -0.000484   0.000080  -0.000435  -0.004930
     4  C   -0.004974  -0.000452   0.000090  -0.000392
     5  C    0.000164   0.000001   0.000000   0.000009
     6  C    0.000004   0.000000  -0.000000   0.000000
     7  C   -0.000000   0.000000   0.000000  -0.000000
     8  C   -0.000000  -0.000000  -0.000000   0.000000
     9  C   -0.000001  -0.000000   0.000000  -0.000000
    10  C    0.000048  -0.000000  -0.000000   0.000000
    11  H   -0.000004   0.000000  -0.000000  -0.000025
    12  H    0.000015  -0.000003  -0.000018   0.005485
    13  H    0.005475  -0.000023  -0.000002   0.000015
    14  H    0.000000   0.000000  -0.000000   0.000000
    15  H    0.000000   0.000000  -0.000000   0.000000
    16  H   -0.000000  -0.000000  -0.000000   0.000000
    17  H    0.000000   0.000000   0.000000   0.000000
    18  H    0.000031   0.000000  -0.000000   0.000000
    19  C    0.010297   0.000894   0.003571  -0.030765
    20  C   -0.030215   0.004409   0.001103   0.011277
    21  C    0.395486  -0.032831   0.004057   0.000555
    22  C   -0.028565   0.410783  -0.035428   0.001874
    23  C    0.002271  -0.036112   0.410039  -0.026889
    24  C    0.000350   0.004352  -0.031860   0.394029
    25  H    0.513547  -0.003525  -0.000306   0.000074
    26  H   -0.003525   0.514129  -0.004130  -0.000313
    27  H   -0.000306  -0.004130   0.514328  -0.003417
    28  H    0.000074  -0.000313  -0.003417   0.514214
 Mulliken charges:
               1
     1  C    0.088519
     2  C   -0.210918
     3  C   -0.189126
     4  C   -0.261169
     5  C    0.095986
     6  C   -0.213267
     7  C   -0.148732
     8  C   -0.146314
     9  C   -0.148029
    10  C   -0.213101
    11  H    0.166402
    12  H    0.141333
    13  H    0.171589
    14  H    0.168180
    15  H    0.144638
    16  H    0.142273
    17  H    0.144548
    18  H    0.169307
    19  C    0.100151
    20  C    0.123576
    21  C   -0.211625
    22  C   -0.139821
    23  C   -0.144058
    24  C   -0.192911
    25  H    0.138902
    26  H    0.142712
    27  H    0.142382
    28  H    0.138572
 Sum of Mulliken charges =  -0.00000
 Mulliken charges with hydrogens summed into heavy atoms:
               1
     1  C    0.088519
     2  C   -0.044516
     3  C   -0.047793
     4  C   -0.089580
     5  C    0.095986
     6  C   -0.045087
     7  C   -0.004094
     8  C   -0.004041
     9  C   -0.003480
    10  C   -0.043793
    19  C    0.100151
    20  C    0.123576
    21  C   -0.072724
    22  C    0.002891
    23  C   -0.001676
    24  C   -0.054339
 Electronic spatial extent (au):  <R**2>=           4445.3153
 Charge=             -0.0000 electrons
 Dipole moment (field-independent basis, Debye):
    X=              0.0397    Y=             -0.0041    Z=              0.0049  Tot=              0.0402
 Quadrupole moment (field-independent basis, Debye-Ang):
   XX=            -81.1301   YY=            -84.1739   ZZ=            -98.7690
   XY=             -0.4218   XZ=              0.6945   YZ=              0.9483
 Traceless Quadrupole moment (field-independent basis, Debye-Ang):
   XX=              6.8942   YY=              3.8504   ZZ=            -10.7446
   XY=             -0.4218   XZ=              0.6945   YZ=              0.9483
 Octapole moment (field-independent basis, Debye-Ang**2):
  XXX=             -2.2300  YYY=              1.3491  ZZZ=              0.1031  XYY=             -6.2914
  XXY=             -3.8710  XXZ=              5.8706  XZZ=              7.8244  YZZ=              0.0068
  YYZ=             -2.1738  XYZ=             18.8644
 Hexadecapole moment (field-independent basis, Debye-Ang**3):
 XXXX=          -4695.3259 YYYY=           -761.5922 ZZZZ=           -233.6145 XXXY=            -12.1803
 XXXZ=             28.5267 YYYX=             -2.2322 YYYZ=             -6.4644 ZZZX=              3.1251
 ZZZY=              9.3868 XXYY=           -939.8309 XXZZ=           -981.0557 YYZZ=           -173.1002
 XXYZ=             27.5961 YYXZ=             -6.8866 ZZXY=              1.2115
 N-N= 9.287088618009D+02 E-N=-3.287447317785D+03  KE= 6.135812358054D+02
 ******************************Gaussian NBO Version 3.1******************************
             N A T U R A L   A T O M I C   O R B I T A L   A N D
          N A T U R A L   B O N D   O R B I T A L   A N A L Y S I S
 ******************************Gaussian NBO Version 3.1******************************
       /RESON  / : Allow strongly delocalized NBO set

 Analyzing the SCF density

 Job title: Structure697                                                    

 Storage needed:    970820 in NPA,   1293015 in NBO (1048571856 available)
 GSVD:  LWork=      124182 too small for GESVD, short by      269885 words or      269885 for optimal perf.


 NATURAL POPULATIONS:  Natural atomic orbital occupancies 
                                                          
   NAO  Atom  No  lang   Type(AO)    Occupancy      Energy
 ----------------------------------------------------------
     1    C    1  S      Cor( 1S)     1.99911     -10.39034
     2    C    1  S      Val( 2S)     0.90676      -0.19945
     3    C    1  S      Ryd( 3S)     0.00067       1.50381
     4    C    1  S      Ryd( 4S)     0.00016       1.66306
     5    C    1  S      Ryd( 5S)     0.00000      21.37138
     6    C    1  px     Val( 2p)     1.04593      -0.05751
     7    C    1  px     Ryd( 3p)     0.00497       1.30574
     8    C    1  px     Ryd( 4p)     0.00060       1.86710
     9    C    1  py     Val( 2p)     1.07256      -0.07273
    10    C    1  py     Ryd( 3p)     0.00411       1.17267
    11    C    1  py     Ryd( 4p)     0.00055       1.57325
    12    C    1  pz     Val( 2p)     1.00756      -0.11056
    13    C    1  pz     Ryd( 3p)     0.00252       0.82406
    14    C    1  pz     Ryd( 4p)     0.00014       1.33181
    15    C    1  dxy    Ryd( 3d)     0.00133       2.34460
    16    C    1  dxy    Ryd( 4d)     0.00052       3.53244
    17    C    1  dxz    Ryd( 3d)     0.00036       1.30558
    18    C    1  dxz    Ryd( 4d)     0.00025       3.39825
    19    C    1  dyz    Ryd( 3d)     0.00011       1.34386
    20    C    1  dyz    Ryd( 4d)     0.00037       3.40263
    21    C    1  dx2y2  Ryd( 3d)     0.00111       2.44207
    22    C    1  dx2y2  Ryd( 4d)     0.00061       3.58281
    23    C    1  dz2    Ryd( 3d)     0.00044       1.78872
    24    C    1  dz2    Ryd( 4d)     0.00021       3.59611
    25    C    1  f(0)   Ryd( 4f)     0.00012       3.56935
    26    C    1  f(C1)  Ryd( 4f)     0.00010       3.73279
    27    C    1  f(S1)  Ryd( 4f)     0.00008       3.65930
    28    C    1  f(C2)  Ryd( 4f)     0.00004       3.65612
    29    C    1  f(S2)  Ryd( 4f)     0.00004       3.68713
    30    C    1  f(C3)  Ryd( 4f)     0.00008       4.36919
    31    C    1  f(S3)  Ryd( 4f)     0.00005       4.34892
 
    32    C    2  S      Cor( 1S)     1.99916     -10.38281
    33    C    2  S      Val( 2S)     0.96714      -0.22709
    34    C    2  S      Ryd( 3S)     0.00090       1.31755
    35    C    2  S      Ryd( 4S)     0.00016       1.55982
    36    C    2  S      Ryd( 5S)     0.00001      21.40416
    37    C    2  px     Val( 2p)     1.10104      -0.06972
    38    C    2  px     Ryd( 3p)     0.00333       1.20514
    39    C    2  px     Ryd( 4p)     0.00019       2.37758
    40    C    2  py     Val( 2p)     1.10665      -0.06810
    41    C    2  py     Ryd( 3p)     0.00357       1.06630
    42    C    2  py     Ryd( 4p)     0.00030       2.68028
    43    C    2  pz     Val( 2p)     1.00873      -0.11549
    44    C    2  pz     Ryd( 3p)     0.00199       0.66175
    45    C    2  pz     Ryd( 4p)     0.00041       1.56021
    46    C    2  dxy    Ryd( 3d)     0.00123       1.99539
    47    C    2  dxy    Ryd( 4d)     0.00072       3.64804
    48    C    2  dxz    Ryd( 3d)     0.00021       1.42797
    49    C    2  dxz    Ryd( 4d)     0.00023       3.00377
    50    C    2  dyz    Ryd( 3d)     0.00053       1.44107
    51    C    2  dyz    Ryd( 4d)     0.00010       3.02375
    52    C    2  dx2y2  Ryd( 3d)     0.00205       1.77319
    53    C    2  dx2y2  Ryd( 4d)     0.00038       3.44053
    54    C    2  dz2    Ryd( 3d)     0.00094       1.57648
    55    C    2  dz2    Ryd( 4d)     0.00005       3.32240
    56    C    2  f(0)   Ryd( 4f)     0.00026       3.38255
    57    C    2  f(C1)  Ryd( 4f)     0.00016       3.56874
    58    C    2  f(S1)  Ryd( 4f)     0.00024       3.51391
    59    C    2  f(C2)  Ryd( 4f)     0.00004       3.52537
    60    C    2  f(S2)  Ryd( 4f)     0.00006       3.47521
    61    C    2  f(C3)  Ryd( 4f)     0.00009       4.26449
    62    C    2  f(S3)  Ryd( 4f)     0.00007       4.05026
 
    63    C    3  S      Cor( 1S)     1.99922     -10.38822
    64    C    3  S      Val( 2S)     0.96956      -0.23104
    65    C    3  S      Ryd( 3S)     0.00089       1.29506
    66    C    3  S      Ryd( 4S)     0.00013       1.37312
    67    C    3  S      Ryd( 5S)     0.00000      21.57273
    68    C    3  px     Val( 2p)     1.05308      -0.06189
    69    C    3  px     Ryd( 3p)     0.00345       1.14091
    70    C    3  px     Ryd( 4p)     0.00032       2.45125
    71    C    3  py     Val( 2p)     1.13416      -0.06879
    72    C    3  py     Ryd( 3p)     0.00379       1.14862
    73    C    3  py     Ryd( 4p)     0.00019       2.37654
    74    C    3  pz     Val( 2p)     0.99441      -0.11475
    75    C    3  pz     Ryd( 3p)     0.00156       0.72441
    76    C    3  pz     Ryd( 4p)     0.00047       1.47443
    77    C    3  dxy    Ryd( 3d)     0.00190       1.79688
    78    C    3  dxy    Ryd( 4d)     0.00066       3.52400
    79    C    3  dxz    Ryd( 3d)     0.00033       1.43247
    80    C    3  dxz    Ryd( 4d)     0.00019       3.03103
    81    C    3  dyz    Ryd( 3d)     0.00030       1.39470
    82    C    3  dyz    Ryd( 4d)     0.00013       2.96778
    83    C    3  dx2y2  Ryd( 3d)     0.00111       1.97705
    84    C    3  dx2y2  Ryd( 4d)     0.00053       3.58872
    85    C    3  dz2    Ryd( 3d)     0.00059       1.58270
    86    C    3  dz2    Ryd( 4d)     0.00007       3.31439
    87    C    3  f(0)   Ryd( 4f)     0.00024       3.38115
    88    C    3  f(C1)  Ryd( 4f)     0.00016       3.63784
    89    C    3  f(S1)  Ryd( 4f)     0.00021       3.42906
    90    C    3  f(C2)  Ryd( 4f)     0.00005       3.47776
    91    C    3  f(S2)  Ryd( 4f)     0.00003       3.50263
    92    C    3  f(C3)  Ryd( 4f)     0.00008       4.21401
    93    C    3  f(S3)  Ryd( 4f)     0.00007       4.09074
 
    94    C    4  S      Cor( 1S)     1.99912     -10.38608
    95    C    4  S      Val( 2S)     0.96269      -0.22253
    96    C    4  S      Ryd( 4S)     0.00084       1.56116
    97    C    4  S      Ryd( 3S)     0.00019       1.40492
    98    C    4  S      Ryd( 5S)     0.00000      21.37405
    99    C    4  px     Val( 2p)     1.03979      -0.05763
   100    C    4  px     Ryd( 3p)     0.00253       1.19523
   101    C    4  px     Ryd( 4p)     0.00015       2.67430
   102    C    4  py     Val( 2p)     1.14305      -0.07267
   103    C    4  py     Ryd( 3p)     0.00340       1.20719
   104    C    4  py     Ryd( 4p)     0.00037       2.21754
   105    C    4  pz     Val( 2p)     1.00015      -0.11413
   106    C    4  pz     Ryd( 3p)     0.00160       0.72045
   107    C    4  pz     Ryd( 4p)     0.00071       1.57425
   108    C    4  dxy    Ryd( 3d)     0.00192       1.83488
   109    C    4  dxy    Ryd( 4d)     0.00043       3.60870
   110    C    4  dxz    Ryd( 3d)     0.00025       1.44693
   111    C    4  dxz    Ryd( 4d)     0.00019       3.09690
   112    C    4  dyz    Ryd( 3d)     0.00056       1.40879
   113    C    4  dyz    Ryd( 4d)     0.00009       3.01915
   114    C    4  dx2y2  Ryd( 3d)     0.00166       1.95871
   115    C    4  dx2y2  Ryd( 4d)     0.00054       3.65739
   116    C    4  dz2    Ryd( 3d)     0.00113       1.59131
   117    C    4  dz2    Ryd( 4d)     0.00004       3.40593
   118    C    4  f(0)   Ryd( 4f)     0.00028       3.39405
   119    C    4  f(C1)  Ryd( 4f)     0.00014       3.64472
   120    C    4  f(S1)  Ryd( 4f)     0.00021       3.45941
   121    C    4  f(C2)  Ryd( 4f)     0.00004       3.51749
   122    C    4  f(S2)  Ryd( 4f)     0.00005       3.53048
   123    C    4  f(C3)  Ryd( 4f)     0.00011       4.21680
   124    C    4  f(S3)  Ryd( 4f)     0.00009       4.09526
 
   125    C    5  S      Cor( 1S)     1.99911     -10.39079
   126    C    5  S      Val( 2S)     0.90918      -0.20134
   127    C    5  S      Ryd( 3S)     0.00079       1.51914
   128    C    5  S      Ryd( 4S)     0.00014       1.69383
   129    C    5  S      Ryd( 5S)     0.00000      21.38432
   130    C    5  px     Val( 2p)     1.04136      -0.05734
   131    C    5  px     Ryd( 3p)     0.00626       1.25130
   132    C    5  px     Ryd( 4p)     0.00048       1.87141
   133    C    5  py     Val( 2p)     1.05405      -0.08277
   134    C    5  py     Ryd( 3p)     0.00423       1.07940
   135    C    5  py     Ryd( 4p)     0.00038       1.47867
   136    C    5  pz     Val( 2p)     1.02549      -0.09961
   137    C    5  pz     Ryd( 3p)     0.00181       0.87983
   138    C    5  pz     Ryd( 4p)     0.00028       1.37090
   139    C    5  dxy    Ryd( 3d)     0.00130       2.12068
   140    C    5  dxy    Ryd( 4d)     0.00038       3.42021
   141    C    5  dxz    Ryd( 3d)     0.00055       1.58125
   142    C    5  dxz    Ryd( 4d)     0.00033       3.36146
   143    C    5  dyz    Ryd( 3d)     0.00048       1.82860
   144    C    5  dyz    Ryd( 4d)     0.00025       3.38208
   145    C    5  dx2y2  Ryd( 3d)     0.00111       2.24151
   146    C    5  dx2y2  Ryd( 4d)     0.00051       3.46634
   147    C    5  dz2    Ryd( 3d)     0.00034       1.54448
   148    C    5  dz2    Ryd( 4d)     0.00037       3.48889
   149    C    5  f(0)   Ryd( 4f)     0.00006       3.69343
   150    C    5  f(C1)  Ryd( 4f)     0.00005       3.72760
   151    C    5  f(S1)  Ryd( 4f)     0.00009       3.51522
   152    C    5  f(C2)  Ryd( 4f)     0.00008       3.82079
   153    C    5  f(S2)  Ryd( 4f)     0.00007       3.95425
   154    C    5  f(C3)  Ryd( 4f)     0.00008       4.11522
   155    C    5  f(S3)  Ryd( 4f)     0.00005       4.12706
 
   156    C    6  S      Cor( 1S)     1.99916     -10.38245
   157    C    6  S      Val( 2S)     0.96997      -0.22850
   158    C    6  S      Ryd( 3S)     0.00096       1.38164
   159    C    6  S      Ryd( 4S)     0.00016       1.46856
   160    C    6  S      Ryd( 5S)     0.00001      21.37776
   161    C    6  px     Val( 2p)     1.06572      -0.06768
   162    C    6  px     Ryd( 3p)     0.00297       1.13256
   163    C    6  px     Ryd( 4p)     0.00019       2.43338
   164    C    6  py     Val( 2p)     1.10555      -0.08402
   165    C    6  py     Ryd( 3p)     0.00355       0.99259
   166    C    6  py     Ryd( 4p)     0.00026       2.22518
   167    C    6  pz     Val( 2p)     1.04005      -0.10064
   168    C    6  pz     Ryd( 3p)     0.00213       0.80261
   169    C    6  pz     Ryd( 4p)     0.00033       1.83350
   170    C    6  dxy    Ryd( 3d)     0.00155       1.62674
   171    C    6  dxy    Ryd( 4d)     0.00054       3.34770
   172    C    6  dxz    Ryd( 3d)     0.00078       1.54069
   173    C    6  dxz    Ryd( 4d)     0.00036       3.22148
   174    C    6  dyz    Ryd( 3d)     0.00087       1.60058
   175    C    6  dyz    Ryd( 4d)     0.00020       3.28493
   176    C    6  dx2y2  Ryd( 3d)     0.00106       1.78334
   177    C    6  dx2y2  Ryd( 4d)     0.00038       3.42753
   178    C    6  dz2    Ryd( 3d)     0.00066       1.47058
   179    C    6  dz2    Ryd( 4d)     0.00009       3.11302
   180    C    6  f(0)   Ryd( 4f)     0.00018       3.56337
   181    C    6  f(C1)  Ryd( 4f)     0.00012       3.59098
   182    C    6  f(S1)  Ryd( 4f)     0.00019       3.33613
   183    C    6  f(C2)  Ryd( 4f)     0.00016       3.64659
   184    C    6  f(S2)  Ryd( 4f)     0.00011       3.76440
   185    C    6  f(C3)  Ryd( 4f)     0.00008       3.96016
   186    C    6  f(S3)  Ryd( 4f)     0.00008       3.84886
 
   187    C    7  S      Cor( 1S)     1.99924     -10.38354
   188    C    7  S      Val( 2S)     0.97587      -0.23540
   189    C    7  S      Ryd( 3S)     0.00091       1.11209
   190    C    7  S      Ryd( 4S)     0.00013       1.37356
   191    C    7  S      Ryd( 5S)     0.00000      21.61965
   192    C    7  px     Val( 2p)     1.08836      -0.06686
   193    C    7  px     Ryd( 3p)     0.00393       1.06861
   194    C    7  px     Ryd( 4p)     0.00026       2.16346
   195    C    7  py     Val( 2p)     1.08122      -0.08369
   196    C    7  py     Ryd( 3p)     0.00343       0.99936
   197    C    7  py     Ryd( 4p)     0.00022       1.92155
   198    C    7  pz     Val( 2p)     1.04173      -0.10239
   199    C    7  pz     Ryd( 3p)     0.00238       0.85270
   200    C    7  pz     Ryd( 4p)     0.00029       1.59297
   201    C    7  dxy    Ryd( 3d)     0.00086       1.76634
   202    C    7  dxy    Ryd( 4d)     0.00057       3.42565
   203    C    7  dxz    Ryd( 3d)     0.00050       1.54269
   204    C    7  dxz    Ryd( 4d)     0.00037       3.15529
   205    C    7  dyz    Ryd( 3d)     0.00095       1.56131
   206    C    7  dyz    Ryd( 4d)     0.00022       3.26244
   207    C    7  dx2y2  Ryd( 3d)     0.00159       1.60063
   208    C    7  dx2y2  Ryd( 4d)     0.00040       3.30399
   209    C    7  dz2    Ryd( 3d)     0.00050       1.42228
   210    C    7  dz2    Ryd( 4d)     0.00011       3.07110
   211    C    7  f(0)   Ryd( 4f)     0.00018       3.50509
   212    C    7  f(C1)  Ryd( 4f)     0.00007       3.52530
   213    C    7  f(S1)  Ryd( 4f)     0.00014       3.35923
   214    C    7  f(C2)  Ryd( 4f)     0.00010       3.65532
   215    C    7  f(S2)  Ryd( 4f)     0.00012       3.72800
   216    C    7  f(C3)  Ryd( 4f)     0.00007       3.94296
   217    C    7  f(S3)  Ryd( 4f)     0.00007       3.81533
 
   218    C    8  S      Cor( 1S)     1.99924     -10.38214
   219    C    8  S      Val( 2S)     0.97660      -0.23578
   220    C    8  S      Ryd( 3S)     0.00089       1.13314
   221    C    8  S      Ryd( 4S)     0.00013       1.35952
   222    C    8  S      Ryd( 5S)     0.00000      21.64212
   223    C    8  px     Val( 2p)     1.16615      -0.07218
   224    C    8  px     Ryd( 3p)     0.00454       1.18232
   225    C    8  px     Ryd( 4p)     0.00017       2.09129
   226    C    8  py     Val( 2p)     1.03780      -0.07956
   227    C    8  py     Ryd( 3p)     0.00308       0.91393
   228    C    8  py     Ryd( 4p)     0.00033       1.99316
   229    C    8  pz     Val( 2p)     1.01479      -0.10010
   230    C    8  pz     Ryd( 3p)     0.00227       0.78598
   231    C    8  pz     Ryd( 4p)     0.00037       1.63343
   232    C    8  dxy    Ryd( 3d)     0.00136       1.64653
   233    C    8  dxy    Ryd( 4d)     0.00042       3.17535
   234    C    8  dxz    Ryd( 3d)     0.00082       1.47956
   235    C    8  dxz    Ryd( 4d)     0.00021       2.96714
   236    C    8  dyz    Ryd( 3d)     0.00084       1.70965
   237    C    8  dyz    Ryd( 4d)     0.00014       3.36995
   238    C    8  dx2y2  Ryd( 3d)     0.00079       1.83052
   239    C    8  dx2y2  Ryd( 4d)     0.00062       3.33613
   240    C    8  dz2    Ryd( 3d)     0.00029       1.54779
   241    C    8  dz2    Ryd( 4d)     0.00026       3.04934
   242    C    8  f(0)   Ryd( 4f)     0.00009       3.50353
   243    C    8  f(C1)  Ryd( 4f)     0.00009       3.51028
   244    C    8  f(S1)  Ryd( 4f)     0.00018       3.47355
   245    C    8  f(C2)  Ryd( 4f)     0.00013       3.57523
   246    C    8  f(S2)  Ryd( 4f)     0.00017       3.80174
   247    C    8  f(C3)  Ryd( 4f)     0.00005       3.88322
   248    C    8  f(S3)  Ryd( 4f)     0.00005       3.73990
 
   249    C    9  S      Cor( 1S)     1.99924     -10.38335
   250    C    9  S      Val( 2S)     0.97602      -0.23532
   251    C    9  S      Ryd( 3S)     0.00091       1.10785
   252    C    9  S      Ryd( 4S)     0.00013       1.38372
   253    C    9  S      Ryd( 5S)     0.00000      21.61346
   254    C    9  px     Val( 2p)     1.06514      -0.06524
   255    C    9  px     Ryd( 3p)     0.00376       1.02826
   256    C    9  px     Ryd( 4p)     0.00027       2.21119
   257    C    9  py     Val( 2p)     1.10870      -0.08540
   258    C    9  py     Ryd( 3p)     0.00362       1.04249
   259    C    9  py     Ryd( 4p)     0.00021       1.87076
   260    C    9  pz     Val( 2p)     1.03761      -0.10198
   261    C    9  pz     Ryd( 3p)     0.00235       0.84576
   262    C    9  pz     Ryd( 4p)     0.00029       1.60057
   263    C    9  dxy    Ryd( 3d)     0.00112       1.69453
   264    C    9  dxy    Ryd( 4d)     0.00050       3.33653
   265    C    9  dxz    Ryd( 3d)     0.00056       1.55699
   266    C    9  dxz    Ryd( 4d)     0.00033       3.17166
   267    C    9  dyz    Ryd( 3d)     0.00091       1.56564
   268    C    9  dyz    Ryd( 4d)     0.00025       3.23807
   269    C    9  dx2y2  Ryd( 3d)     0.00131       1.68175
   270    C    9  dx2y2  Ryd( 4d)     0.00047       3.37009
   271    C    9  dz2    Ryd( 3d)     0.00049       1.43301
   272    C    9  dz2    Ryd( 4d)     0.00012       3.06402
   273    C    9  f(0)   Ryd( 4f)     0.00018       3.50807
   274    C    9  f(C1)  Ryd( 4f)     0.00010       3.58721
   275    C    9  f(S1)  Ryd( 4f)     0.00013       3.30916
   276    C    9  f(C2)  Ryd( 4f)     0.00014       3.63524
   277    C    9  f(S2)  Ryd( 4f)     0.00009       3.74419
   278    C    9  f(C3)  Ryd( 4f)     0.00006       3.93838
   279    C    9  f(S3)  Ryd( 4f)     0.00007       3.80928
 
   280    C   10  S      Cor( 1S)     1.99916     -10.38212
   281    C   10  S      Val( 2S)     0.97056      -0.22843
   282    C   10  S      Ryd( 3S)     0.00099       1.39455
   283    C   10  S      Ryd( 4S)     0.00017       1.47332
   284    C   10  S      Ryd( 5S)     0.00001      21.37830
   285    C   10  px     Val( 2p)     1.09233      -0.06941
   286    C   10  px     Ryd( 3p)     0.00336       1.17983
   287    C   10  px     Ryd( 4p)     0.00016       2.34814
   288    C   10  py     Val( 2p)     1.07283      -0.08069
   289    C   10  py     Ryd( 3p)     0.00316       0.94986
   290    C   10  py     Ryd( 4p)     0.00026       2.31582
   291    C   10  pz     Val( 2p)     1.04392      -0.10057
   292    C   10  pz     Ryd( 3p)     0.00216       0.81236
   293    C   10  pz     Ryd( 4p)     0.00032       1.80572
   294    C   10  dxy    Ryd( 3d)     0.00110       1.76657
   295    C   10  dxy    Ryd( 4d)     0.00059       3.45866
   296    C   10  dxz    Ryd( 3d)     0.00061       1.55318
   297    C   10  dxz    Ryd( 4d)     0.00039       3.19159
   298    C   10  dyz    Ryd( 3d)     0.00103       1.57571
   299    C   10  dyz    Ryd( 4d)     0.00017       3.31762
   300    C   10  dx2y2  Ryd( 3d)     0.00159       1.62992
   301    C   10  dx2y2  Ryd( 4d)     0.00033       3.34162
   302    C   10  dz2    Ryd( 3d)     0.00067       1.46102
   303    C   10  dz2    Ryd( 4d)     0.00008       3.11970
   304    C   10  f(0)   Ryd( 4f)     0.00020       3.55215
   305    C   10  f(C1)  Ryd( 4f)     0.00007       3.53559
   306    C   10  f(S1)  Ryd( 4f)     0.00022       3.38712
   307    C   10  f(C2)  Ryd( 4f)     0.00011       3.64351
   308    C   10  f(S2)  Ryd( 4f)     0.00015       3.76970
   309    C   10  f(C3)  Ryd( 4f)     0.00012       3.96571
   310    C   10  f(S3)  Ryd( 4f)     0.00006       3.85809
 
   311    H   11  S      Val( 1S)     0.78225       0.05271
   312    H   11  S      Ryd( 2S)     0.00049       1.41981
   313    H   11  S      Ryd( 3S)     0.00014       1.52661
   314    H   11  px     Ryd( 2p)     0.00023       2.93169
   315    H   11  py     Ryd( 2p)     0.00025       2.92914
   316    H   11  pz     Ryd( 2p)     0.00010       2.25793
 
   317    H   12  S      Val( 1S)     0.78638       0.04704
   318    H   12  S      Ryd( 3S)     0.00047       1.46817
   319    H   12  S      Ryd( 2S)     0.00019       1.44249
   320    H   12  px     Ryd( 2p)     0.00011       2.84366
   321    H   12  py     Ryd( 2p)     0.00037       2.98041
   322    H   12  pz     Ryd( 2p)     0.00009       2.24302
 
   323    H   13  S      Val( 1S)     0.78728       0.04627
   324    H   13  S      Ryd( 2S)     0.00140       0.72920
   325    H   13  S      Ryd( 3S)     0.00020       2.28420
   326    H   13  px     Ryd( 2p)     0.00009       2.88506
   327    H   13  py     Ryd( 2p)     0.00024       2.99882
   328    H   13  pz     Ryd( 2p)     0.00011       2.27820
 
   329    H   14  S      Val( 1S)     0.78364       0.05154
   330    H   14  S      Ryd( 2S)     0.00049       1.40947
   331    H   14  S      Ryd( 3S)     0.00014       1.53318
   332    H   14  px     Ryd( 2p)     0.00014       2.83162
   333    H   14  py     Ryd( 2p)     0.00029       2.77687
   334    H   14  pz     Ryd( 2p)     0.00016       2.46329
 
   335    H   15  S      Val( 1S)     0.78464       0.05047
   336    H   15  S      Ryd( 2S)     0.00035       1.06629
   337    H   15  S      Ryd( 3S)     0.00018       1.71071
   338    H   15  px     Ryd( 2p)     0.00018       2.86729
   339    H   15  py     Ryd( 2p)     0.00020       2.69901
   340    H   15  pz     Ryd( 2p)     0.00015       2.43480
 
   341    H   16  S      Val( 1S)     0.78673       0.05117
   342    H   16  S      Ryd( 2S)     0.00033       0.99009
   343    H   16  S      Ryd( 3S)     0.00018       1.79892
   344    H   16  px     Ryd( 2p)     0.00041       3.01270
   345    H   16  py     Ryd( 2p)     0.00006       2.60997
   346    H   16  pz     Ryd( 2p)     0.00006       2.37131
 
   347    H   17  S      Val( 1S)     0.78466       0.05050
   348    H   17  S      Ryd( 2S)     0.00035       1.06192
   349    H   17  S      Ryd( 3S)     0.00018       1.71534
   350    H   17  px     Ryd( 2p)     0.00011       2.81474
   351    H   17  py     Ryd( 2p)     0.00028       2.75874
   352    H   17  pz     Ryd( 2p)     0.00014       2.42685
 
   353    H   18  S      Val( 1S)     0.78294       0.05271
   354    H   18  S      Ryd( 2S)     0.00047       1.46910
   355    H   18  S      Ryd( 3S)     0.00014       1.48067
[...]
 -0.20544026,0.23165479,-0.00057168,0.02252253,-0.00973358,-0.01881643,
 -0.01015631,0.00514871,0.01705699,-0.01186125,0.00446004,0.02690630,-0
 .00827574,0.00262197,0.00009189,0.00034212,-0.00000658,-0.00035202,0.0
 0005984,0.00021036,0.00009834,0.00002542,-0.00019831,-0.00004293,-0.00
 009416,-0.00004695,-0.00010243,0.00002801,-0.00015838,0.00017260,0.000
 04799,0.00015173,-0.00025984,-0.00021825,0.00001566,0.00036115,0.00010
 783,0.00000647,0.00018307,-0.00048452,0.00010392,0.00005675,-0.0001852
 6,0.00010242,-0.00001024,0.00000708,0.00000642,-0.00000452,-0.00003405
 ,0.00006729,-0.00001352,-0.00000395,0.00000298,-0.00003746,-0.00011689
 ,0.00009734,-0.05131846,-0.00543240,0.00418171,-0.05239707,0.05785024,
 -0.02331258,-0.40313346,-0.02842603,0.02701015,0.73897157,0.00045097,0
 .01163793,-0.00511261,-0.01012547,-0.00632396,0.00319796,0.01079549,-0
 .00713551,0.00234562,0.01345207,-0.00858718,0.00598514,0.00006091,-0.0
 0037011,-0.00005113,-0.00003248,0.00000281,0.00009784,0.00004387,-0.00
 002090,-0.00017381,-0.00004423,-0.00003883,-0.00002231,-0.00003863,0.0
 0002827,-0.00002313,0.00005867,0.00005742,0.00005657,-0.00025962,-0.00
 003807,0.00006314,0.00018578,0.00006615,-0.00005216,0.00033318,-0.0001
 1531,-0.00011416,-0.00000077,-0.00005617,0.00010729,0.00001271,0.00000
 176,0.00000173,0.00000978,-0.00001445,0.00003605,0.00000708,-0.0000000
 9,0.00000534,-0.00004245,-0.00008792,0.00002457,-0.02936755,-0.0026568
 0,-0.00091407,0.01639821,0.02702108,-0.00958245,0.03468569,-0.12110640
 ,0.02491610,-0.05774639,0.60422732,-0.00024918,-0.00613694,0.00245858,
 0.00534482,0.00338229,-0.00130076,-0.00557150,0.00334612,-0.00201268,-
 0.00678919,0.00681098,0.00321565,-0.00000755,-0.00016608,-0.00058143,0
 .00014992,0.00003915,-0.00004671,-0.00003202,-0.00006348,0.00011263,-0
 .00000890,0.00004373,0.00001229,0.00004669,-0.00001885,0.00005286,-0.0
 0010197,-0.00004616,-0.00001087,0.00012340,0.00007811,0.00008200,-0.00
 010438,-0.00008880,-0.00010285,-0.00018142,-0.00000367,-0.00006157,-0.
 00000743,0.00004133,-0.00006553,0.00000337,0.00000174,-0.00000309,-0.0
 0000297,0.00001020,-0.00002343,-0.00000176,-0.00000038,-0.00000604,0.0
 0001176,0.00004465,-0.00003873,0.01494626,-0.00188063,-0.00725108,-0.0
 0485798,-0.01123268,0.01235988,-0.00117885,0.02750228,-0.07417864,0.00
 035294,-0.20629232,0.22765535,0.00019241,-0.00058658,0.00024031,-0.000
 68196,0.00003185,-0.00013640,-0.00406233,-0.00304210,0.00181553,-0.001
 92423,0.00116514,-0.00034456,-0.00010100,-0.00007714,0.00004908,-0.000
 09799,-0.00021853,0.00005440,-0.00004047,-0.00003417,-0.00008141,-0.00
 011586,-0.00000340,0.00000493,-0.00004454,0.00002933,0.00009435,-0.000
 11077,0.00023527,-0.00004107,-0.00055746,0.00010149,-0.00001757,0.0000
 4452,0.00026519,-0.00012578,0.00002120,0.00000254,-0.00002742,0.000012
 85,-0.00000419,0.00001471,-0.00003095,0.00001620,-0.00000111,-0.000009
 56,0.00000077,-0.00000271,-0.00003538,-0.00001571,0.00000189,0.0000134
 7,0.00000604,-0.00003195,-0.02555895,0.03083937,-0.01223834,0.00274184
 ,-0.00070024,-0.00007593,-0.02723358,-0.02711927,0.01358090,-0.1679705
 7,-0.09656672,0.04749039,0.75221640,-0.00111773,-0.02207358,0.00974288
 ,0.02226102,0.01153596,-0.00589834,-0.02503334,0.01784611,-0.00406586,
 -0.02140160,0.00839371,-0.00316985,0.00064456,-0.00024926,-0.00002002,
 0.00016086,0.00013000,-0.00024972,-0.00001740,0.00001365,0.00022654,-0
 .00000559,0.00009080,0.00005092,0.00017102,-0.00006551,0.00013324,-0.0
 0032803,-0.00023407,-0.00009762,0.00021399,0.00014569,-0.00024174,-0.0
 0054555,0.00001865,-0.00013902,-0.00006266,0.00036388,-0.00013221,-0.0
 0005570,0.00017533,-0.00012184,0.00000510,-0.00000566,-0.00000095,0.00
 000172,0.00003390,-0.00006995,0.00000999,0.00000323,-0.00000904,0.0000
 3284,0.00012787,-0.00008552,0.07309357,0.00363669,-0.00142876,0.022531
 03,-0.04824672,0.01725404,-0.07465330,0.03054014,-0.00693231,-0.029871
 43,-0.21999979,0.07105867,-0.05015264,0.59150954,0.00046133,0.00997197
 ,-0.00400605,-0.00982544,-0.00521079,0.00235965,0.01151847,-0.00503736
 ,0.00783130,0.00955178,-0.00415047,0.00059611,-0.00024441,0.00015253,0
 .00013560,-0.00008951,-0.00005865,0.00010264,0.00000903,0.00001248,-0.
 00010095,0.00001337,-0.00004593,-0.00001751,-0.00008175,0.00003432,-0.
 00006529,0.00015765,0.00008142,0.00004770,-0.00010855,-0.00035968,-0.0
 0051611,0.00022764,-0.00007612,-0.00002993,0.00002894,-0.00021480,-0.0
 0006108,0.00002548,-0.00007042,0.00005368,-0.00000370,0.00000223,-0.00
 000115,-0.00000031,-0.00001383,0.00002931,-0.00000170,0.00000002,0.000
 00256,-0.00002018,-0.00005026,0.00003747,-0.03104240,0.00018595,0.0084
 0950,-0.01041752,0.01817789,-0.01509599,0.03472337,-0.00879639,0.01054
 635,0.01786447,0.07390178,-0.09719955,-0.00442584,-0.20098878,0.224556
 79,-0.00299982,-0.02164854,0.00945072,0.02698228,0.01355927,-0.0064747
 1,-0.05071917,0.02579950,-0.00901649,-0.01624841,0.00602705,-0.0018815
 7,0.00136198,-0.00030288,-0.00010879,0.00006391,0.00039244,-0.00030474
 ,0.00007061,0.00004721,0.00026822,-0.00001591,0.00010005,0.00005115,0.
 00027034,-0.00011533,0.00007099,-0.00046939,-0.00049228,-0.00002814,0.
 00030260,0.00016051,0.00006430,0.00122879,-0.00181584,0.00046408,-0.00
 017034,0.00044560,-0.00013965,-0.00006748,0.00017431,-0.00014064,0.000
 01875,-0.00001165,0.00000410,0.00000604,0.00003325,-0.00006695,0.00002
 157,0.00000868,-0.00001443,0.00002414,0.00011747,-0.00005538,-0.286890
 17,0.00031927,0.00977393,-0.00493336,-0.05237138,0.02390862,-0.0516502
 1,0.02427964,-0.00889534,0.06696173,0.02305020,-0.01276536,-0.20130136
 ,0.07766645,-0.02847288,0.65835975,0.00124334,0.00854661,-0.00411206,-
 0.00835547,-0.00879546,0.00668039,0.04410817,-0.00518943,0.00197129,0.
 00646255,-0.00735981,0.00544753,-0.00083964,0.00032302,-0.00031721,0.0
 0019511,-0.00018317,0.00004071,-0.00017025,-0.00001185,-0.00007048,0.0
 0011672,0.00008138,0.00001225,0.00002049,0.00001750,-0.00009869,0.0002
 2083,0.00005772,-0.00004568,0.00119745,-0.00004974,-0.00000148,0.00111
 653,0.00049325,-0.00155124,-0.00148010,-0.00013234,0.00011124,-0.00000
 901,-0.00001754,0.00010957,0.00001282,-0.00000864,-0.00000905,0.000011
 36,-0.00000779,0.00004088,0.00002326,0.00000934,0.00000517,-0.00001795
 ,-0.00004066,0.00009194,-0.03132110,-0.10464568,0.01751004,-0.03461023
 ,0.02668154,-0.00722479,0.02939547,-0.01611145,0.00361134,-0.02466490,
 -0.04957011,0.02672146,0.14127720,-0.29142917,0.09603958,-0.01113147,0
 .67474948,-0.00049190,-0.00307784,0.00060625,0.00275199,0.00582740,0.0
 0329000,-0.01705242,0.00283301,0.00329191,-0.00183146,0.00523900,0.003
 03535,0.00033409,-0.00032357,-0.00057589,0.00014424,0.00005153,-0.0000
 1913,-0.00013378,-0.00011470,-0.00001164,-0.00004791,0.00016836,0.0000
 4075,0.00018173,-0.00011678,0.00000409,-0.00031918,-0.00005421,0.00003
 113,-0.00056295,0.00012418,0.00015866,-0.00069667,-0.00152030,-0.00231
 378,0.00067623,0.00008869,-0.00000364,0.00000709,-0.00003874,-0.000021
 12,-0.00000490,0.00000520,-0.00000795,-0.00000458,-0.00000059,0.000001
 27,-0.00001186,-0.00000331,-0.00001348,0.00000126,-0.00001202,-0.00002
 555,0.02374722,0.01626858,-0.07644641,0.01571196,-0.00636390,0.0094794
 0,-0.01103876,0.00376224,-0.00645484,0.00843495,0.02463646,-0.00331809
 ,-0.05673289,0.09869258,-0.10319496,-0.01794715,-0.23797689,0.24436062
 ,0.00003486,-0.00052026,0.00022910,0.00037938,0.00017046,-0.00007925,0
 .00031889,0.00074895,-0.00034852,0.00121624,0.00117404,-0.00073146,-0.
 00004470,-0.00002659,0.00000310,0.00002540,0.00001561,0.00000228,0.000
 00793,-0.00000476,0.00000141,0.00001268,-0.00000531,-0.00000358,-0.000
 01065,-0.00001293,0.00000371,0.00000920,0.00001201,0.00002133,-0.00002
 040,-0.00002743,0.00001327,-0.00013219,0.00021164,-0.00007913,-0.00018
 334,-0.00044582,0.00025340,-0.00000306,-0.00000083,-0.00000203,0.00000
 545,-0.00000313,-0.00000131,0.00000436,-0.00000148,-0.00000211,0.00000
 266,0.00000301,-0.00000040,-0.00000886,-0.00000909,-0.00002940,-0.0012
 7129,0.00261867,-0.00089157,0.01055761,0.01268063,-0.00596091,-0.12704
 402,-0.10831077,0.05207157,-0.01036417,-0.02644003,0.01239174,-0.00547
 962,0.00149134,-0.00006517,-0.00067350,0.00066548,-0.00029646,0.132214
 56,0.00027681,0.00004003,-0.00009868,0.00009194,0.00004690,-0.00009473
 ,-0.00123709,-0.00060312,0.00034747,-0.00181776,0.00046170,-0.00145335
 ,-0.00003382,0.00001451,0.00006625,0.00001595,-0.00002062,-0.00001334,
 -0.00000909,0.00001505,-0.00000444,0.00001593,0.00000484,0.00000031,0.
 00001043,0.00001697,-0.00000811,0.00003233,-0.00002263,-0.00002940,0.0
 0005886,0.00004791,0.00000481,0.00021460,-0.00029422,0.00019813,0.0010
 7765,0.00020509,-0.00004831,-0.00000775,0.00001147,0.00001662,0.000001
 08,-0.00000133,0.00000167,0.00000055,0.00000186,0.00000369,0.00000599,
 0.00000043,0.00000443,0.00000684,0.00000346,0.00002725,0.00383429,-0.0
 0133601,0.00272009,-0.01408966,-0.01554927,0.00908383,-0.10863110,-0.2
 2919945,0.09032554,0.00202301,0.00405187,-0.00009718,0.00054519,0.0029
 1090,0.00256624,0.00084042,-0.00001789,-0.00031773,0.11717762,0.239627
 49,-0.00012879,-0.00007405,-0.00005515,-0.00005072,-0.00006489,-0.0000
 7274,0.00051929,0.00026577,-0.00009379,0.00059181,-0.00162941,-0.00241
 579,0.00004967,0.00006496,0.00011326,-0.00004066,-0.00000066,-0.000000
 79,0.00000971,0.00000607,-0.00001092,0.00000167,-0.00000632,-0.0000027
 1,-0.00000376,-0.00001787,-0.00001212,-0.00002534,0.00004666,0.0000182
 3,-0.00002156,0.00000104,0.00003981,-0.00007913,0.00020555,0.00010345,
 -0.00043868,0.00006087,0.00025867,0.00000518,-0.00001522,0.00000227,-0
 .00000192,-0.00000202,0.00000128,0.00000104,-0.00000353,0.00000104,-0.
 00000806,0.00000054,0.00000265,-0.00001626,0.00000464,-0.00000558,-0.0
 0142160,0.00273875,0.00390455,0.00599157,0.00794460,-0.00026762,0.0522
 0794,0.09030255,-0.07982913,-0.00026343,0.00113441,0.00358885,0.000365
 54,0.00251067,0.00757834,-0.00039638,-0.00030337,-0.00049040,-0.056738
 64,-0.10061798,0.07276437,-0.00052095,0.00022845,-0.00012710,-0.000305
 48,-0.00026239,0.00013058,0.00048901,-0.00013640,0.00000256,0.00030565
 ,0.00122738,-0.00057597,0.00004412,0.00013968,-0.00004414,-0.00006731,
 -0.00002468,0.00000227,-0.00000272,0.00000682,0.00000238,-0.00002260,0
 .00000165,0.00000164,0.00000414,0.00000157,0.00000414,-0.00002617,0.00
 001021,0.00000425,-0.00000159,0.00001762,-0.00000591,-0.00002070,0.000
 06336,-0.00002466,-0.00003091,-0.00003950,0.00002417,0.00000662,-0.000
 00347,-0.00000142,-0.00000938,0.00000313,0.00000089,-0.00000392,0.0000
 0021,0.00000036,-0.00000898,-0.00000317,-0.00000188,0.00000885,0.00000
 647,0.00000202,-0.00095688,-0.00036156,0.00016915,-0.00556761,-0.00125
 177,0.00122352,-0.01121079,0.02684183,-0.01132128,-0.13397980,0.115390
 96,-0.04741874,0.01187386,-0.01345779,0.00560326,-0.00091447,-0.002903
 90,0.00157477,0.00099058,-0.00044811,-0.00006416,0.13886378,0.00006432
 ,0.00010518,-0.00032500,-0.00017691,-0.00002712,0.00006534,0.00024443,
 -0.00025784,-0.00028974,0.00011196,-0.00005622,0.00008352,-0.00006372,
 0.00000098,-0.00001503,0.00002912,0.00000213,0.00000046,0.00000095,0.0
 0000198,0.00000151,0.00001484,-0.00000103,-0.00000222,-0.00000202,-0.0
 0000138,-0.00000832,0.00002585,-0.00000095,0.00000587,0.00001621,-0.00
 000164,0.00002628,-0.00002550,0.00004685,0.00000425,0.00002108,0.00003
 261,0.00006537,-0.00000148,0.00000208,0.00000532,0.00000430,-0.0000028
 6,-0.00000017,0.00000304,-0.00000070,0.00000179,0.00000394,0.00000235,
 0.00000103,-0.00000198,-0.00000538,0.00000135,-0.00085083,0.00025386,-
 0.00040960,-0.00071843,0.00290960,0.00295639,-0.00171071,0.00371938,0.
 00006053,0.11605743,-0.23468916,0.08273496,0.01472503,-0.01439196,0.00
 690127,-0.00352818,-0.00169129,0.00337026,0.00022631,-0.00023846,-0.00
 218483,-0.12488753,0.24479118,-0.00000915,-0.00034996,-0.00046878,0.00
 007485,0.00007564,0.00007418,-0.00013970,-0.00029090,-0.00074945,-0.00
 006785,0.00003898,0.00012666,-0.00000503,-0.00002356,-0.00002459,0.000
 01333,-0.00001114,0.00000164,0.00000342,-0.00000311,-0.00000551,-0.000
 00787,-0.00000022,-0.00000088,0.00000194,0.00000143,-0.00000059,-0.000
 01275,0.00001700,0.00000382,-0.00000297,0.00002774,0.00005034,0.000016
 83,0.00000112,0.00004943,0.00000511,0.00006595,0.00014804,0.00000611,-
 0.00000054,0.00000484,-0.00000024,0.00000012,0.00000069,-0.00000069,-0
 .00000036,0.00000181,-0.00000304,-0.00000136,0.00000134,0.00000756,0.0
 0000048,0.00000480,0.00040261,-0.00039019,-0.00058265,0.00092170,0.002
 95687,0.00811249,0.00133737,-0.00114821,0.00416212,-0.04767977,0.08275
 634,-0.07268135,-0.00695277,0.00812077,-0.00081354,0.00186519,0.003335
 01,0.00396343,-0.00035708,-0.00215685,-0.00415165,0.05093055,-0.092096
 84,0.06494388,0.00009112,0.00002553,-0.00001499,-0.00012946,0.00034360
 ,-0.00016504,-0.00061673,-0.00040509,0.00021556,-0.00003825,-0.0000497
 0,-0.00002219,0.00004226,0.00000102,0.00000307,-0.00002184,0.00000319,
 0.00000523,0.00000328,-0.00000351,0.00000145,-0.00001251,-0.00000106,-
 0.00000027,0.00000042,0.00000565,-0.00000174,-0.00001685,-0.00000244,-
 0.00000526,-0.00007308,-0.00000445,0.00000168,0.00000514,0.00004031,-0
 .00001045,0.00001336,-0.00001021,0.00000770,0.00000722,-0.00000850,-0.
 00000803,-0.00000452,0.00000306,0.00000129,-0.00000474,0.00000002,0.00
 000037,-0.00000400,-0.00000308,0.00000016,0.00000823,0.00000661,0.0000
 0910,0.00087714,0.00275525,-0.00085792,0.00063145,-0.00001685,-0.00004
 626,0.00059239,-0.00272259,0.00141988,-0.01059846,0.00273486,-0.000662
 71,-0.34366650,0.00458534,0.01109908,-0.01181025,-0.00201700,0.0015538
 0,-0.00062990,0.00017547,-0.00004581,0.00066492,-0.00030360,-0.0000087
 2,0.36388997,-0.00005823,-0.00037046,0.00021016,0.00046201,-0.00026292
 ,-0.00017457,0.00075036,0.00074027,-0.00027915,-0.00040352,0.00019705,
 -0.00045399,-0.00002024,0.00002207,0.00001358,-0.00000245,-0.00000609,
 -0.00000812,0.00000717,0.00001062,0.00000822,0.00000538,-0.00000770,-0
 .00000226,-0.00000510,0.00000538,0.00000364,0.00001526,-0.00000193,-0.
 00000760,0.00013359,-0.00000156,-0.00001888,-0.00001779,-0.00000226,0.
 00007244,0.00008074,0.00002012,0.00000698,-0.00000334,0.00001129,0.000
 00107,0.00000108,-0.00000092,0.00000065,0.00000089,0.00000120,-0.00000
 134,0.00000184,0.00000040,0.00000149,0.00000113,0.00000142,0.00000234,
 0.00214108,-0.00258866,0.00524436,0.00047640,-0.00112152,0.00013709,-0
 .00208567,-0.00295983,0.00387797,-0.02544556,0.00476072,0.00005629,0.0
 0391918,-0.05585663,0.00799839,0.02654977,0.00416903,-0.00138535,-0.00
 126796,0.00006357,0.00007021,0.00056618,0.00031769,-0.00136686,-0.0052
 5034,0.05291753,0.00005946,0.00019962,0.00002704,-0.00023816,-0.000155
 96,-0.00054679,-0.00029815,-0.00023505,0.00031132,0.00012304,-0.000459
 45,-0.00066891,-0.00003490,0.00000214,0.00005244,-0.00002362,-0.000007
 42,0.00000752,0.00002672,0.00001206,0.00000449,0.00000016,-0.00002652,
 -0.00000928,-0.00002733,0.00000875,0.00000182,0.00002357,0.00002467,-0
 .00000146,-0.00004821,-0.00002271,-0.00002341,0.00001357,0.00007509,0.
 00013176,-0.00003398,0.00001707,0.00004075,0.00000187,0.00000218,-0.00
 000481,0.00000005,-0.00000046,0.00000231,-0.00000025,-0.00000060,-0.00
 000079,-0.00000210,-0.00000047,0.00000238,-0.00000008,-0.00000115,0.00
 000120,-0.00060070,0.00520969,0.00712940,-0.00025406,0.00015945,-0.000
 83048,0.00113139,0.00390938,0.00373956,0.01190173,-0.00114655,0.002439
 92,0.01137644,0.00799861,-0.04146295,-0.01112675,-0.00022015,0.0041731
 0,0.00059818,0.00001251,0.00007536,-0.00039785,-0.00132759,-0.00208668
 ,-0.01216357,-0.01179450,0.03159229,0.00006787,-0.00012193,0.00002899,
 0.00017508,0.00035427,-0.00017910,0.00142182,-0.00168378,0.00055870,-0
 .00018770,-0.00150959,0.00068789,0.00006512,0.00009963,-0.00003439,-0.
 00004063,-0.00002487,-0.00000932,-0.00001005,0.00000677,-0.00000422,-0
 .00001987,0.00001031,0.00000429,0.00001679,0.00001038,0.00000768,-0.00
 002560,-0.00000735,-0.00001916,-0.00003618,0.00001941,0.00000301,-0.00
 019008,0.00105958,-0.00045706,-0.00049642,0.00000928,0.00001985,-0.000
 00020,0.00000427,0.00000804,-0.00000693,0.00000212,0.00000202,-0.00000
 199,0.00000158,0.00000163,-0.00000252,-0.00000240,0.00000048,0.0000068
 1,0.00001387,0.00001324,-0.01084380,-0.02553205,0.01194794,-0.00519387
 ,0.00172981,-0.00032328,-0.00080499,0.00077267,-0.00033907,-0.00088732
 ,0.00299391,-0.00091937,0.01190655,0.01383393,-0.00648451,-0.12680865,
 -0.10854575,0.05205354,0.00008589,-0.00013058,0.00000148,0.00039873,0.
 00072210,-0.00033894,0.00080021,-0.00055187,-0.00000647,0.13061196,0.0
 0004832,0.00033753,-0.00019450,-0.00048318,-0.00006625,-0.00000514,0.0
 0125137,0.00029297,-0.00156728,0.00040941,-0.00010968,0.00005496,0.000
 04194,0.00001451,0.00001467,-0.00003423,-0.00000399,0.00000657,0.00000
 354,-0.00000178,-0.00000817,-0.00001753,-0.00000284,-0.00000065,-0.000
 00196,0.00000336,0.00000369,-0.00000788,0.00001319,-0.00000438,-0.0000
 3551,0.00003172,0.00006490,-0.00048735,0.00020376,0.00004290,0.0000009
 3,0.00002429,0.00006616,0.00000514,-0.00000815,-0.00000015,-0.00000482
 ,0.00000287,0.00000170,-0.00000333,-0.00000069,0.00000092,-0.00000472,
 -0.00000319,0.00000082,0.00000779,-0.00000091,0.00000425,0.00120872,0.
 00275115,0.00020836,0.00061052,0.00200682,0.00139474,0.00059976,0.0000
 9310,-0.00036144,0.00394558,-0.00104456,0.00415521,-0.01463909,-0.0149
 2368,0.00904741,-0.10815354,-0.22986685,0.09023846,-0.00011939,-0.0002
 4105,-0.00043716,-0.00072525,-0.00081986,0.00044266,0.00011850,-0.0000
 5786,-0.00223265,0.11646628,0.24137607,-0.00001567,-0.00015964,-0.0000
 2121,0.00016690,-0.00005678,-0.00007838,-0.00070462,-0.00147595,-0.002
 41131,-0.00017508,0.00012802,0.00000559,-0.00001133,0.00000649,0.00002
 438,0.00001077,0.00001599,-0.00000442,0.00000121,-0.00000057,0.0000018
 9,0.00000797,0.00000048,0.00000125,0.00000263,-0.00000754,-0.00000693,
 0.00000922,0.00000153,-0.00000079,0.00002651,0.00006711,0.00014748,0.0
 0024928,-0.00001503,0.00022734,0.00001896,0.00007240,0.00015362,-0.000
 00195,-0.00000051,0.00000199,0.00000400,-0.00000185,0.00000051,0.00000
 161,-0.00000049,-0.00000058,0.00000176,0.00000075,0.00000110,0.0000012
 8,-0.00000730,-0.00000142,-0.00001992,0.00141232,0.00271418,0.00017359
 ,0.00133623,0.00460860,-0.00024203,-0.00038527,-0.00049646,-0.00134168
 ,0.00421834,0.00690437,0.00614728,0.00786262,0.00027805,0.05191405,0.0
 9020271,-0.07953906,-0.00000207,-0.00043873,-0.00104378,0.00030661,0.0
 0037379,-0.00008383,-0.00030540,-0.00221227,-0.00409713,-0.05622390,-0
 .10093687,0.07271494\\0.00001595,-0.00000125,-0.00000547,0.00000774,-0
 .00001422,0.00000753,-0.00001100,-0.00000324,0.00000189,-0.00001103,0.
 00001020,-0.00000359,-0.00000756,0.00001622,0.00001155,0.00001721,-0.0
 0001796,-0.00000721,-0.00001545,-0.00001140,-0.00000510,-0.00000192,0.
 00001706,0.00000513,0.00001260,-0.00000074,-0.00000186,-0.00001526,-0.
 00000114,-0.00000180,0.00000281,0.00000853,-0.00000103,-0.00000199,0.0
 0000338,-0.00000176,-0.00000073,-0.00000292,0.00000201,0.00000072,0.00
 000718,0.00000006,0.00000520,0.00000582,0.00000205,0.00000052,0.000002
 56,-0.00000131,0.00000107,-0.00000022,-0.00000269,-0.00000087,-0.00000
 134,-0.00000199,0.00002283,0.00000589,-0.00000393,0.00000320,-0.000013
 06,0.00000595,-0.00000931,0.00000353,-0.00000086,0.00000385,0.00001249
 ,-0.00000584,-0.00001444,-0.00001299,0.00000524,-0.00000887,-0.0000002
 9,0.00000005,0.00000044,-0.00000357,0.00000104,-0.00000260,-0.00000667
 ,0.00000148,0.00000311,0.00000059,-0.00000069,0.00000378,-0.00000243,0
 .00000115\\\@
 The archive entry for this job was punched.


 KNOWING HOW CONTENTED, FREE, AND JOYFUL IS LIFE IN
 THE REALMS OF SCIENCE, ONE FERVENTLY WISHES THAT
 MANY WOULD ENTER HER PORTALS.
   --  DMITRI IVANOVICH MENDELEEV
 "FIRST PRINCIPLES OF CHEMISTRY", LONGMANS, GREEN,
 AND CO.  LONDON, 1891
 Job cpu time:       1 days 16 hours  2 minutes 46.2 seconds.
 Elapsed time:       0 days  1 hours 15 minutes 48.9 seconds.
 File lengths (MBytes):  RWF=    674 Int=      0 D2E=      0 Chk=     27 Scr=      1
 Normal termination of Gaussian 16 at Tue Oct 31 20:53:05 2023.
