 Entering Gaussian System, Link 0=g16
 Input=ph35sf5_idp_7_1_m062x.com
 Output=ph35sf5_idp_7_1_m062x.log
 Initial command:
 /arc/software/Gaussian/g16.c01/l1.exe "/tmp/Gau-50008.inp" -scrdir="/tmp/"
 Entering Link 1 = /arc/software/Gaussian/g16.c01/l1.exe PID=     50009.
  
 Copyright (c) 1988-2019, Gaussian, Inc.  All Rights Reserved.
  
 This is part of the Gaussian(R) 16 program.  It is based on
 the Gaussian(R) 09 system (copyright 2009, Gaussian, Inc.),
 the Gaussian(R) 03 system (copyright 2003, Gaussian, Inc.),
 the Gaussian(R) 98 system (copyright 1998, Gaussian, Inc.),
 the Gaussian(R) 94 system (copyright 1995, Gaussian, Inc.),
 the Gaussian 92(TM) system (copyright 1992, Gaussian, Inc.),
 the Gaussian 90(TM) system (copyright 1990, Gaussian, Inc.),
 the Gaussian 88(TM) system (copyright 1988, Gaussian, Inc.),
 the Gaussian 86(TM) system (copyright 1986, Carnegie Mellon
 University), and the Gaussian 82(TM) system (copyright 1983,
 Carnegie Mellon University). Gaussian is a federally registered
 trademark of Gaussian, Inc.
  
 This software contains proprietary and confidential information,
 including trade secrets, belonging to Gaussian, Inc.
  
 This software is provided under written license and may be
 used, copied, transmitted, or stored only in accord with that
 written license.
  
 The following legend is applicable only to US Government
 contracts under FAR:
  
                    RESTRICTED RIGHTS LEGEND
  
 Use, reproduction and disclosure by the US Government is
 subject to restrictions as set forth in subparagraphs (a)
 and (c) of the Commercial Computer Software - Restricted
 Rights clause in FAR 52.227-19.
  
 Gaussian, Inc.
 340 Quinnipiac St., Bldg. 40, Wallingford CT 06492
  
  
 ---------------------------------------------------------------
 Warning -- This program may not be used in any manner that
 competes with the business of Gaussian, Inc. or will provide
 assistance to any competitor of Gaussian, Inc.  The licensee
 of this program is prohibited from giving any competitor of
 Gaussian, Inc. access to this program.  By using this program,
 the user acknowledges that Gaussian, Inc. is engaged in the
 business of creating and licensing software in the field of
 computational chemistry and represents and warrants to the
 licensee that it is not a competitor of Gaussian, Inc. and that
 it will not use this program in any manner prohibited above.
 ---------------------------------------------------------------
  

 Cite this work as:
 Gaussian 16, Revision C.01,
 M. J. Frisch, G. W. Trucks, H. B. Schlegel, G. E. Scuseria, 
 M. A. Robb, J. R. Cheeseman, G. Scalmani, V. Barone, 
 G. A. Petersson, H. Nakatsuji, X. Li, M. Caricato, A. V. Marenich, 
 J. Bloino, B. G. Janesko, R. Gomperts, B. Mennucci, H. P. Hratchian, 
 J. V. Ortiz, A. F. Izmaylov, J. L. Sonnenberg, D. Williams-Young, 
 F. Ding, F. Lipparini, F. Egidi, J. Goings, B. Peng, A. Petrone, 
 T. Henderson, D. Ranasinghe, V. G. Zakrzewski, J. Gao, N. Rega, 
 G. Zheng, W. Liang, M. Hada, M. Ehara, K. Toyota, R. Fukuda, 
 J. Hasegawa, M. Ishida, T. Nakajima, Y. Honda, O. Kitao, H. Nakai, 
 T. Vreven, K. Throssell, J. A. Montgomery, Jr., J. E. Peralta, 
 F. Ogliaro, M. J. Bearpark, J. J. Heyd, E. N. Brothers, K. N. Kudin, 
 V. N. Staroverov, T. A. Keith, R. Kobayashi, J. Normand, 
 K. Raghavachari, A. P. Rendell, J. C. Burant, S. S. Iyengar, 
 J. Tomasi, M. Cossi, J. M. Millam, M. Klene, C. Adamo, R. Cammi, 
 J. W. Ochterski, R. L. Martin, K. Morokuma, O. Farkas, 
 J. B. Foresman, and D. J. Fox, Gaussian, Inc., Wallingford CT, 2019.
 
 ******************************************
 Gaussian 16:  ES64L-G16RevC.01  3-Jul-2019
                31-Oct-2023 
 ******************************************
 %nprocshared=32
 Will use up to   32 processors via shared memory.
 %mem=8000MB
 %chk=ph35sf5_idp_7_1_m062x.chk
 -----------------------------------------
 # opt freq=noraman m062x def2tzvp pop=nbo
 -----------------------------------------
 1/18=20,19=15,26=3,38=1/1,3;
 2/9=110,12=2,17=6,18=5,40=1/2;
 3/5=44,7=101,11=2,25=1,30=1,71=1,74=-55/1,2,3;
 4//1;
 5/5=2,38=5/2;
 6/7=2,8=2,9=2,10=2,28=1,40=1/1,7;
 7//1,2,3,16;
 1/18=20,19=15,26=3/3(2);
 2/9=110/2;
 99//99;
 2/9=110/2;
 3/5=44,7=101,11=2,25=1,30=1,71=1,74=-55/1,2,3;
 4/5=5,16=3,69=1/1;
 5/5=2,38=5/2;
 7//1,2,3,16;
 1/18=20,19=15,26=3/3(-5);
 2/9=110/2;
 6/7=2,8=2,9=2,10=2,19=2,28=1,40=1/1,7;
 99/9=1/99;
 ------------
 Structure697
 ------------
 Symbolic Z-matrix:
 Charge =  0 Multiplicity = 1
 C                    -2.7194   -0.1151    0.5037 
 C                    -2.1734    0.0902   -0.7714 
 C                    -0.7986    0.2305   -0.9417 
 C                     0.0433    0.1679    0.1647 
 C                    -0.4794   -0.034     1.4387 
 C                    -1.8547   -0.1752    1.6059 
 H                    -0.386     0.3849   -1.929 
 H                     0.1801   -0.0767    2.2942 
 H                    -2.8068    0.129    -1.6465 
 H                    -2.2387   -0.3151    2.6062 
 C                    -6.973    -0.5518    1.0141 
 C                    -6.4821    0.377     0.0978 
 C                    -5.0896    0.5126   -0.0604 
 C                    -4.1917   -0.2663    0.6828 
 C                    -4.713    -1.1919    1.5968 
 C                    -6.0902   -1.3388    1.7674 
 H                    -8.0411   -0.6721    1.1502 
 H                    -4.7144    1.2462   -0.7631 
 H                    -4.0428   -1.816     2.1745 
 F                    -7.4675    2.6107   -1.8037 
 F                    -8.9295    1.6581    0.1624 
 F                    -6.8231    2.4645   -0.0705 
 F                    -5.8537   -3.9207    2.6996 
 F                    -5.7985   -2.3423    4.3122 
 F                    -8.1923   -2.9065    3.3707 
 S                    -7.6998    1.3386   -0.8356 
 F                    -6.7525    0.8288   -2.0462 
 F                    -8.3763    0.2248   -1.7899 
 S                    -6.6694   -2.552     2.9672 
 F                    -7.2625   -1.1772    3.5823 
 F                    -7.3321   -3.1151    1.6021 
 H                     1.1108    0.2778    0.0336 
 

 GradGradGradGradGradGradGradGradGradGradGradGradGradGradGradGradGradGrad
 Berny optimization.
 Initialization pass.
                           ----------------------------
                           !    Initial Parameters    !
                           ! (Angstroms and Degrees)  !
 --------------------------                            --------------------------
 ! Name  Definition              Value          Derivative Info.                !
 --------------------------------------------------------------------------------
 ! R1    R(1,2)                  1.4022         estimate D2E/DX2                !
 ! R2    R(1,6)                  1.4022         estimate D2E/DX2                !
 ! R3    R(1,14)                 1.4908         estimate D2E/DX2                !
 ! R4    R(2,3)                  1.3924         estimate D2E/DX2                !
 ! R5    R(2,9)                  1.081          estimate D2E/DX2                !
 ! R6    R(3,4)                  1.3917         estimate D2E/DX2                !
 ! R7    R(3,7)                  1.0811         estimate D2E/DX2                !
 ! R8    R(4,5)                  1.3918         estimate D2E/DX2                !
 ! R9    R(4,32)                 1.0811         estimate D2E/DX2                !
 ! R10   R(5,6)                  1.3926         estimate D2E/DX2                !
 ! R11   R(5,8)                  1.081          estimate D2E/DX2                !
 ! R12   R(6,10)                 1.0806         estimate D2E/DX2                !
 ! R13   R(11,12)                1.394          estimate D2E/DX2                !
 ! R14   R(11,16)                1.4022         estimate D2E/DX2                !
 ! R15   R(11,17)                1.0834         estimate D2E/DX2                !
 ! R16   R(12,13)                1.408          estimate D2E/DX2                !
 ! R17   R(12,26)                1.8107         estimate D2E/DX2                !
 ! R18   R(13,14)                1.4019         estimate D2E/DX2                !
 ! R19   R(13,18)                1.0829         estimate D2E/DX2                !
 ! R20   R(14,15)                1.4014         estimate D2E/DX2                !
 ! R21   R(15,16)                1.3955         estimate D2E/DX2                !
 ! R22   R(15,19)                1.0828         estimate D2E/DX2                !
 ! R23   R(16,29)                1.8019         estimate D2E/DX2                !
 ! R24   R(20,26)                1.6154         estimate D2E/DX2                !
 ! R25   R(21,26)                1.6156         estimate D2E/DX2                !
 ! R26   R(22,26)                1.6191         estimate D2E/DX2                !
 ! R27   R(23,29)                1.6156         estimate D2E/DX2                !
 ! R28   R(24,29)                1.616          estimate D2E/DX2                !
 ! R29   R(25,29)                1.6148         estimate D2E/DX2                !
 ! R30   R(26,27)                1.6195         estimate D2E/DX2                !
 ! R31   R(26,28)                1.6152         estimate D2E/DX2                !
 ! R32   R(29,30)                1.6187         estimate D2E/DX2                !
 ! R33   R(29,31)                1.6186         estimate D2E/DX2                !
 ! A1    A(2,1,6)              118.7477         estimate D2E/DX2                !
 ! A2    A(2,1,14)             120.5734         estimate D2E/DX2                !
 ! A3    A(6,1,14)             120.6789         estimate D2E/DX2                !
 ! A4    A(1,2,3)              120.6934         estimate D2E/DX2                !
 ! A5    A(1,2,9)              120.8814         estimate D2E/DX2                !
 ! A6    A(3,2,9)              118.4192         estimate D2E/DX2                !
 ! A7    A(2,3,4)              119.7049         estimate D2E/DX2                !
 ! A8    A(2,3,7)              120.192          estimate D2E/DX2                !
 ! A9    A(4,3,7)              120.103          estimate D2E/DX2                !
 ! A10   A(3,4,5)              120.4676         estimate D2E/DX2                !
 ! A11   A(3,4,32)             119.7585         estimate D2E/DX2                !
 ! A12   A(5,4,32)             119.7739         estimate D2E/DX2                !
 ! A13   A(4,5,6)              119.7032         estimate D2E/DX2                !
 ! A14   A(4,5,8)              120.067          estimate D2E/DX2                !
 ! A15   A(6,5,8)              120.2294         estimate D2E/DX2                !
 ! A16   A(1,6,5)              120.6832         estimate D2E/DX2                !
 ! A17   A(1,6,10)             120.9348         estimate D2E/DX2                !
 ! A18   A(5,6,10)             118.374          estimate D2E/DX2                !
 ! A19   A(12,11,16)           120.3563         estimate D2E/DX2                !
 ! A20   A(12,11,17)           120.2462         estimate D2E/DX2                !
 ! A21   A(16,11,17)           119.3974         estimate D2E/DX2                !
 ! A22   A(11,12,13)           119.0973         estimate D2E/DX2                !
 ! A23   A(11,12,26)           117.1197         estimate D2E/DX2                !
 ! A24   A(13,12,26)           123.7815         estimate D2E/DX2                !
 ! A25   A(12,13,14)           121.3572         estimate D2E/DX2                !
 ! A26   A(12,13,18)           118.7378         estimate D2E/DX2                !
 ! A27   A(14,13,18)           119.8994         estimate D2E/DX2                !
 ! A28   A(1,14,13)            120.8302         estimate D2E/DX2                !
 ! A29   A(1,14,15)            120.8439         estimate D2E/DX2                !
 ! A30   A(13,14,15)           118.3258         estimate D2E/DX2                !
 ! A31   A(14,15,16)           121.0896         estimate D2E/DX2                !
 ! A32   A(14,15,19)           119.8961         estimate D2E/DX2                !
 ! A33   A(16,15,19)           119.0095         estimate D2E/DX2                !
 ! A34   A(11,16,15)           119.7736         estimate D2E/DX2                !
 ! A35   A(11,16,29)           122.2241         estimate D2E/DX2                !
 ! A36   A(15,16,29)           118.0022         estimate D2E/DX2                !
 ! A37   A(12,26,20)           129.0821         estimate D2E/DX2                !
 ! A38   A(12,26,21)           107.3646         estimate D2E/DX2                !
 ! A39   A(12,26,22)            76.206          estimate D2E/DX2                !
 ! A40   A(12,26,27)            79.9096         estimate D2E/DX2                !
 ! A41   A(12,26,28)           102.7102         estimate D2E/DX2                !
 ! A42   A(20,26,21)           108.9004         estimate D2E/DX2                !
 ! A43   A(20,26,22)            69.9846         estimate D2E/DX2                !
 ! A44   A(20,26,27)            73.4884         estimate D2E/DX2                !
 ! A45   A(20,26,28)           104.4292         estimate D2E/DX2                !
 ! A46   A(21,26,22)            89.0096         estimate D2E/DX2                !
 ! A47   A(21,26,28)           100.5179         estimate D2E/DX2                !
 ! A48   A(22,26,27)           104.7973         estimate D2E/DX2                !
 ! A49   A(27,26,28)            65.5609         estimate D2E/DX2                !
 ! A50   A(16,29,23)           107.3259         estimate D2E/DX2                !
 ! A51   A(16,29,24)           107.073          estimate D2E/DX2                !
 ! A52   A(16,29,25)           128.1206         estimate D2E/DX2                !
 ! A53   A(16,29,30)            78.4021         estimate D2E/DX2                !
 ! A54   A(16,29,31)            78.7124         estimate D2E/DX2                !
 ! A55   A(23,29,24)            88.6074         estimate D2E/DX2                !
 ! A56   A(23,29,25)           109.3625         estimate D2E/DX2                !
 ! A57   A(23,29,31)            76.8381         estimate D2E/DX2                !
 ! A58   A(24,29,25)           109.1935         estimate D2E/DX2                !
 ! A59   A(24,29,30)            76.7607         estimate D2E/DX2                !
 ! A60   A(25,29,30)            75.283          estimate D2E/DX2                !
 ! A61   A(25,29,31)            75.4184         estimate D2E/DX2                !
 ! A62   A(30,29,31)           117.7717         estimate D2E/DX2                !
 ! A63   L(21,26,27,12,-1)     187.2742         estimate D2E/DX2                !
 ! A64   L(22,26,28,12,-1)     178.9162         estimate D2E/DX2                !
 ! A65   L(23,29,30,16,-1)     185.728          estimate D2E/DX2                !
 ! A66   L(24,29,31,16,-1)     185.7854         estimate D2E/DX2                !
 ! A67   L(21,26,27,12,-2)     167.3677         estimate D2E/DX2                !
 ! A68   L(22,26,28,12,-2)     189.9861         estimate D2E/DX2                !
 ! A69   L(23,29,30,16,-2)     193.948          estimate D2E/DX2                !
 ! A70   L(24,29,31,16,-2)     166.1787         estimate D2E/DX2                !
 ! D1    D(6,1,2,3)              0.0675         estimate D2E/DX2                !
 ! D2    D(6,1,2,9)            179.1706         estimate D2E/DX2                !
 ! D3    D(14,1,2,3)          -179.9402         estimate D2E/DX2                !
 ! D4    D(14,1,2,9)            -0.8371         estimate D2E/DX2                !
 ! D5    D(2,1,6,5)             -0.0089         estimate D2E/DX2                !
 ! D6    D(2,1,6,10)           178.9448         estimate D2E/DX2                !
 ! D7    D(14,1,6,5)           179.9988         estimate D2E/DX2                !
 ! D8    D(14,1,6,10)           -1.0475         estimate D2E/DX2                !
 ! D9    D(2,1,14,13)          -38.98           estimate D2E/DX2                !
 ! D10   D(2,1,14,15)          140.9256         estimate D2E/DX2                !
 ! D11   D(6,1,14,13)          141.0122         estimate D2E/DX2                !
 ! D12   D(6,1,14,15)          -39.0822         estimate D2E/DX2                !
 ! D13   D(1,2,3,4)             -0.0685         estimate D2E/DX2                !
 ! D14   D(1,2,3,7)            179.7768         estimate D2E/DX2                !
 ! D15   D(9,2,3,4)           -179.1933         estimate D2E/DX2                !
 ! D16   D(9,2,3,7)              0.6521         estimate D2E/DX2                !
 ! D17   D(2,3,4,5)              0.0103         estimate D2E/DX2                !
 ! D18   D(2,3,4,32)          -179.9336         estimate D2E/DX2                !
 ! D19   D(7,3,4,5)           -179.8353         estimate D2E/DX2                !
 ! D20   D(7,3,4,32)             0.2209         estimate D2E/DX2                !
 ! D21   D(3,4,5,6)              0.0477         estimate D2E/DX2                !
 ! D22   D(3,4,5,8)           -179.6994         estimate D2E/DX2                !
 ! D23   D(32,4,5,6)           179.9916         estimate D2E/DX2                !
 ! D24   D(32,4,5,8)             0.2444         estimate D2E/DX2                !
 ! D25   D(4,5,6,1)             -0.0482         estimate D2E/DX2                !
 ! D26   D(4,5,6,10)          -179.0282         estimate D2E/DX2                !
 ! D27   D(8,5,6,1)            179.6985         estimate D2E/DX2                !
 ! D28   D(8,5,6,10)             0.7185         estimate D2E/DX2                !
 ! D29   D(16,11,12,13)          0.0308         estimate D2E/DX2                !
 ! D30   D(16,11,12,26)        179.6072         estimate D2E/DX2                !
 ! D31   D(17,11,12,13)       -179.9494         estimate D2E/DX2                !
 ! D32   D(17,11,12,26)         -0.373          estimate D2E/DX2                !
 ! D33   D(12,11,16,15)         -0.0864         estimate D2E/DX2                !
 ! D34   D(12,11,16,29)        179.8916         estimate D2E/DX2                !
 ! D35   D(17,11,16,15)        179.8939         estimate D2E/DX2                !
 ! D36   D(17,11,16,29)         -0.1281         estimate D2E/DX2                !
 ! D37   D(11,12,13,14)          0.0343         estimate D2E/DX2                !
 ! D38   D(11,12,13,18)       -179.1024         estimate D2E/DX2                !
 ! D39   D(26,12,13,14)       -179.5121         estimate D2E/DX2                !
 ! D40   D(26,12,13,18)          1.3512         estimate D2E/DX2                !
 ! D41   D(11,12,26,20)        170.7332         estimate D2E/DX2                !
 ! D42   D(11,12,26,21)         37.009          estimate D2E/DX2                !
 ! D43   D(11,12,26,22)        121.5334         estimate D2E/DX2                !
 ! D44   D(11,12,26,27)       -130.3588         estimate D2E/DX2                !
 ! D45   D(11,12,26,28)        -68.4527         estimate D2E/DX2                !
 ! D46   D(13,12,26,20)         -9.7122         estimate D2E/DX2                !
 ! D47   D(13,12,26,21)       -143.4364         estimate D2E/DX2                !
 ! D48   D(13,12,26,22)        -58.9119         estimate D2E/DX2                !
 ! D49   D(13,12,26,27)         49.1959         estimate D2E/DX2                !
 ! D50   D(13,12,26,28)        111.102          estimate D2E/DX2                !
 ! D51   D(12,13,14,1)         179.8656         estimate D2E/DX2                !
 ! D52   D(12,13,14,15)         -0.0423         estimate D2E/DX2                !
 ! D53   D(18,13,14,1)          -1.0076         estimate D2E/DX2                !
 ! D54   D(18,13,14,15)        179.0844         estimate D2E/DX2                !
 ! D55   D(1,14,15,16)        -179.9223         estimate D2E/DX2                !
 ! D56   D(1,14,15,19)          -0.7267         estimate D2E/DX2                !
 ! D57   D(13,14,15,16)         -0.0144         estimate D2E/DX2                !
 ! D58   D(13,14,15,19)        179.1812         estimate D2E/DX2                !
 ! D59   D(14,15,16,11)          0.0784         estimate D2E/DX2                !
 ! D60   D(14,15,16,29)       -179.9006         estimate D2E/DX2                !
 ! D61   D(19,15,16,11)       -179.1242         estimate D2E/DX2                !
 ! D62   D(19,15,16,29)          0.8968         estimate D2E/DX2                !
 ! D63   D(11,16,29,23)        132.4958         estimate D2E/DX2                !
 ! D64   D(11,16,29,24)       -133.5374         estimate D2E/DX2                !
 ! D65   D(11,16,29,25)         -0.8382         estimate D2E/DX2                !
 ! D66   D(11,16,29,30)        -61.4522         estimate D2E/DX2                !
 ! D67   D(11,16,29,31)         60.2839         estimate D2E/DX2                !
 ! D68   D(15,16,29,23)        -47.5257         estimate D2E/DX2                !
 ! D69   D(15,16,29,24)         46.4411         estimate D2E/DX2                !
 ! D70   D(15,16,29,25)        179.1402         estimate D2E/DX2                !
 ! D71   D(15,16,29,30)        118.5263         estimate D2E/DX2                !
 ! D72   D(15,16,29,31)       -119.7377         estimate D2E/DX2                !
 --------------------------------------------------------------------------------
 Trust Radius=3.00D-01 FncErr=1.00D-07 GrdErr=1.00D-06 EigMax=2.50D+02 EigMin=1.00D-04
 Number of steps in this run=    185 maximum allowed number of steps=    192.
 GradGradGradGradGradGradGradGradGradGradGradGradGradGradGradGradGradGrad

                          Input orientation:                          
 ---------------------------------------------------------------------
 Center     Atomic      Atomic             Coordinates (Angstroms)
 Number     Number       Type             X           Y           Z
 ---------------------------------------------------------------------
      1          6           0       -2.719400   -0.115100    0.503700
      2          6           0       -2.173400    0.090200   -0.771400
      3          6           0       -0.798600    0.230500   -0.941700
      4          6           0        0.043300    0.167900    0.164700
      5          6           0       -0.479400   -0.034000    1.438700
      6          6           0       -1.854700   -0.175200    1.605900
      7          1           0       -0.386000    0.384900   -1.929000
      8          1           0        0.180100   -0.076700    2.294200
      9          1           0       -2.806800    0.129000   -1.646500
     10          1           0       -2.238700   -0.315100    2.606200
     11          6           0       -6.973000   -0.551800    1.014100
     12          6           0       -6.482100    0.377000    0.097800
     13          6           0       -5.089600    0.512600   -0.060400
     14          6           0       -4.191700   -0.266300    0.682800
     15          6           0       -4.713000   -1.191900    1.596800
     16          6           0       -6.090200   -1.338800    1.767400
     17          1           0       -8.041100   -0.672100    1.150200
     18          1           0       -4.714400    1.246200   -0.763100
     19          1           0       -4.042800   -1.816000    2.174500
     20          9           0       -7.467500    2.610700   -1.803700
     21          9           0       -8.929500    1.658100    0.162400
     22          9           0       -6.823100    2.464500   -0.070500
     23          9           0       -5.853700   -3.920700    2.699600
     24          9           0       -5.798500   -2.342300    4.312200
     25          9           0       -8.192300   -2.906500    3.370700
     26         16           0       -7.699800    1.338600   -0.835600
     27          9           0       -6.752500    0.828800   -2.046200
     28          9           0       -8.376300    0.224800   -1.789900
     29         16           0       -6.669400   -2.552000    2.967200
     30          9           0       -7.262500   -1.177200    3.582300
     31          9           0       -7.332100   -3.115100    1.602100
     32          1           0        1.110800    0.277800    0.033600
 ---------------------------------------------------------------------
                    Distance matrix (angstroms):
                    1          2          3          4          5
     1  C    0.000000
     2  C    1.402193   0.000000
     3  C    2.428599   1.392394   0.000000
     4  C    2.797771   2.407505   1.391702   0.000000
     5  C    2.428663   2.787401   2.416227   1.391781   0.000000
     6  C    1.402199   2.413206   2.787509   2.407733   1.392603
     7  H    3.407754   2.149810   1.081129   2.148247   3.394938
     8  H    3.408000   3.868426   3.394595   2.147863   1.081038
     9  H    2.165776   1.080972   2.130707   3.377133   3.868051
    10  H    2.166005   3.402457   3.867708   3.376646   2.130073
    11  C    4.306313   5.161040   6.523830   7.104077   6.528035
    12  C    3.816389   4.404845   5.779636   6.529092   6.164361
    13  C    2.515962   3.031199   4.389641   5.149384   4.878526
    14  C    1.490841   2.513031   3.794593   4.288611   3.795592
    15  C    2.515712   3.701583   4.877472   5.149986   4.391935
    16  C    3.802193   4.881482   6.148411   6.516028   5.769889
    17  H    5.389685   6.221218   7.592400   8.187450   7.594058
    18  H    2.727260   2.791610   4.049325   4.965808   4.941868
    19  H    2.726907   3.975749   4.942034   4.967028   4.051511
    20  F    5.941257   5.953659   7.133206   8.139655   8.145007
    21  F    6.467307   6.998227   8.328782   9.095705   8.711850
    22  F    4.881024   5.267663   6.484161   7.244111   6.983031
    23  F    5.397074   6.455987   7.486358   7.610320   6.751252
    24  F    5.380144   6.700850   7.695568   7.591409   6.471327
    25  F    6.779693   7.897111   9.116159   9.357108   8.454153
    26  S    5.358298   5.666015   6.990401   7.894728   7.693546
    27  F    4.864035   4.810281   6.084966   7.176891   7.227775
    28  F    6.113645   6.287402   7.625025   8.643689   8.535330
    29  S    5.254504   6.416570   7.582091   7.766093   6.855125
    30  F    5.589776   6.816153   8.014374   8.177041   7.205024
    31  F    5.611015   6.520708   7.768564   8.200045   7.515276
    32  H    3.878891   3.386619   2.144588   1.081120   2.144822
                    6          7          8          9         10
     6  C    0.000000
     7  H    3.868632   0.000000
     8  H    2.150319   4.285903   0.000000
     9  H    3.402519   2.450625   4.949040   0.000000
    10  H    1.080568   4.948791   2.450464   4.313400   0.000000
    11  C    5.166145   7.275150   7.282253   4.989940   5.000441
    12  C    4.898175   6.424205   7.029575   4.075772   4.977702
    13  C    3.703269   5.062788   5.801823   2.806072   3.990423
    14  C    2.514355   4.661428   4.663174   2.738585   2.741543
    15  C    3.033750   5.800042   5.066800   3.987151   2.812441
    16  C    4.395396   7.012304   6.417716   4.958817   4.072542
    17  H    6.223031   8.318610   8.321741   5.988421   5.992932
    18  H    3.976232   4.564669   5.920581   2.380645   4.463063
    19  H    2.793441   5.920714   4.568630   4.462148   2.386177
    20  F    7.133732   7.424118   9.082989   5.282582   7.439615
    21  F    7.449663   8.887428   9.515194   6.564885   7.391379
    22  F    5.870548   7.015341   7.816285   4.906017   5.992297
    23  F    5.587213   8.358102   7.165712   6.676246   5.106594
    24  F    5.251089   8.699733   6.704396   7.110816   4.437584
    25  F    7.123180   9.992920   8.903016   7.961794   6.537979
    26  S    6.512888   7.456322   8.596019   5.105109   6.663657
    27  F    6.191470   6.383033   8.229213   4.027161   6.582380
    28  F    7.363608   7.993114   9.485924   5.572169   7.568839
    29  S    5.539283   8.489951   7.314075   6.587387   4.976459
    30  F    5.844182   8.949907   7.632994   6.992837   5.189851
    31  F    6.216505   8.542071   8.132898   6.446389   5.898385
    32  H    3.386964   2.470563   2.470260   4.265263   4.264851
                   11         12         13         14         15
    11  C    0.000000
    12  C    1.394008   0.000000
    13  C    2.415511   1.408002   0.000000
    14  C    2.815475   2.449896   1.401876   0.000000
    15  C    2.420097   2.799672   2.406961   1.401387   0.000000
    16  C    1.402200   2.425927   2.787424   2.435347   1.395480
    17  H    1.083436   2.153750   3.403001   3.898848   3.397925
    18  H    3.390062   2.149749   1.082927   2.156733   3.393149
    19  H    3.395703   3.882282   3.393073   2.156133   1.082777
    20  F    4.264497   3.094532   3.618774   5.019031   5.797451
    21  F    3.071961   2.763179   4.013308   5.140125   5.287615
    22  F    3.208877   2.121853   2.610563   3.866393   4.538907
    23  F    3.929788   5.063050   5.277840   4.492701   3.156535
    24  F    3.932277   5.061923   5.269974   4.479300   3.142472
    25  F    3.547516   4.941460   5.752342   5.495477   4.265220
    26  S    2.742853   1.810719   2.845409   4.145842   4.608793
    27  F    3.364538   2.207708   2.609333   3.899280   4.638344
    28  F    3.230290   2.678539   3.725103   4.885315   5.186188
    29  S    2.812041   4.104580   4.588453   4.072089   2.748703
    30  F    2.659057   3.894394   4.565762   4.320492   3.231467
    31  F    2.654280   3.896175   4.577436   4.338535   3.249371
    32  H    8.185196   7.593819   6.205556   5.369731   6.206469
                   16         17         18         19         20
    16  C    0.000000
    17  H    2.152077   0.000000
    18  H    3.870204   4.290399   0.000000
    19  H    2.141331   4.283001   4.296232   0.000000
    20  F    5.499842   4.453237   3.244113   6.866609   0.000000
    21  F    4.429341   2.682319   4.335122   6.324378   2.628772
    22  F    4.287203   3.579370   2.531909   5.576089   1.854888
    23  F    2.755202   4.211741   6.323381   2.825748   8.095878
    24  F    2.751019   4.221027   6.309618   2.815890   8.044999
    25  F    3.073610   3.153732   6.813883   4.454036   7.598634
    26  S    4.066312   2.846542   2.987709   5.690857   1.615370
    27  F    4.436291   3.759011   2.444263   5.670251   1.935252
    28  F    4.508379   3.092083   3.937904   6.217761   2.553160
    29  S    1.801901   2.952469   5.671286   2.840616   7.074738
    30  F    2.166625   2.603162   5.590007   3.571615   6.587807
    31  F    2.173679   2.583630   5.609587   3.582569   6.663527
    32  H    7.581152   9.268569   5.958648   5.960457   9.077738
                   21         22         23         24         25
    21  F    0.000000
    22  F    2.267475   0.000000
    23  F    6.857182   7.027373   0.000000
    24  F    6.559512   6.585073   2.257182   0.000000
    25  F    5.627808   6.524125   2.635911   2.633443   0.000000
    26  S    1.615626   1.619145   6.600452   6.607860   5.996365
    27  F    3.210137   2.565909   6.774084   7.169047   6.735599
    28  F    2.484322   3.222580   6.610922   7.104272   6.039097
    29  S    5.540749   5.866559   1.615647   1.616003   1.614840
    30  F    4.744843   5.176678   3.207907   2.008360   1.974786
    31  F    5.235252   5.847103   2.009767   3.208394   1.977727
    32  H   10.135553   8.230387   8.557991   8.538722  10.383818
                   26         27         28         29         30
    26  S    0.000000
    27  F    1.619514   0.000000
    28  F    1.615206   1.751352   0.000000
    29  S    5.537127   6.047387   5.766639   0.000000
    30  F    5.102776   5.997012   5.662746   1.618700   0.000000
    31  F    5.090484   5.403737   4.873495   1.618564   2.771551
    32  H    8.916697   8.152341   9.660902   8.783239   9.209910
                   31         32
    31  F    0.000000
    32  H    9.233338   0.000000
 Stoichiometry    C12H8F10S2
 Framework group  C1[X(C12H8F10S2)]
 Deg. of freedom    90
 Full point group                 C1      NOp   1
 Largest Abelian subgroup         C1      NOp   1
 Largest concise Abelian subgroup C1      NOp   1
                         Standard orientation:                         
 ---------------------------------------------------------------------
 Center     Atomic      Atomic             Coordinates (Angstroms)
 Number     Number       Type             X           Y           Z
 ---------------------------------------------------------------------
      1          6           0       -3.026394   -0.209882   -0.005841
      2          6           0       -3.797130    0.706344    0.723980
      3          6           0       -5.186806    0.619648    0.730767
      4          6           0       -5.818617   -0.385650    0.004802
      5          6           0       -5.071292   -1.303912   -0.726877
      6          6           0       -3.681502   -1.215533   -0.730867
      7          1           0       -5.772996    1.328219    1.299228
      8          1           0       -5.568975   -2.079248   -1.292394
      9          1           0       -3.327536    1.487114    1.305686
     10          1           0       -3.123222   -1.929718   -1.318993
     11          6           0        1.270924    0.068199   -0.013537
     12          6           0        0.506347    1.233120   -0.054002
     13          6           0       -0.897936    1.130853   -0.052313
     14          6           0       -1.538558   -0.115374   -0.010157
     15          6           0       -0.745165   -1.269850    0.029801
     16          6           0        0.647869   -1.187300    0.027590
     17          1           0        2.352857    0.125249   -0.013273
     18          1           0       -1.486173    2.038903   -0.098729
     19          1           0       -1.213319   -2.245084    0.076235
     20          9           0        0.830107    4.296877   -0.345044
     21          9           0        2.716816    2.590114   -1.006656
     22          9           0        0.505455    2.837357   -1.442773
     23          9           0        0.947787   -3.640291    1.245793
     24          9           0        0.925401   -3.720039   -1.009869
     25          9           0        3.190145   -2.914282    0.065637
     26         16           0        1.401174    2.806766   -0.094299
     27          9           0        0.354299    3.106265    1.104525
     28          9           0        2.068942    2.873589    1.374889
     29         16           0        1.586535   -2.724575    0.077983
     30          9           0        2.063871   -2.098023   -1.336151
     31          9           0        2.093088   -1.999493    1.433494
     32          1           0       -6.897624   -0.453116    0.008595
 ---------------------------------------------------------------------
 Rotational constants (GHZ):           0.1865860           0.1837260           0.1029392
 Standard basis: def2TZVP (5D, 7F)
 There are   924 symmetry adapted cartesian basis functions of A   symmetry.
 There are   804 symmetry adapted basis functions of A   symmetry.
   804 basis functions,  1324 primitive gaussians,   924 cartesian basis functions
   101 alpha electrons      101 beta electrons
       nuclear repulsion energy      2845.2165828103 Hartrees.
 NAtoms=   32 NActive=   32 NUniq=   32 SFac= 1.00D+00 NAtFMM=   60 NAOKFM=F Big=F
 Integral buffers will be    131072 words long.
 Raffenetti 2 integral format.
 Two-electron integral symmetry is turned on.
 One-electron integrals computed using PRISM.
   1 Symmetry operations used in ECPInt.
 ECPInt:  NShTT=   45150 NPrTT=  147733 LenC2=   36276 LenP2D=   80329.
 LDataN:  DoStor=T MaxTD1= 6 Len=  172
 Number of processors reduced to  31 by ecpmxn.
 NBasis=   804 RedAO= T EigKep=  5.88D-06  NBF=   804
 NBsUse=   804 1.00D-06 EigRej= -1.00D+00 NBFU=   804
 ExpMin= 9.52D-02 ExpMax= 6.07D+04 ExpMxC= 2.07D+03 IAcc=3 IRadAn=         5 AccDes= 0.00D+00
 Harris functional with IExCor= 1009 and IRadAn=       5 diagonalized for initial guess.
 HarFok:  IExCor= 1009 AccDes= 0.00D+00 IRadAn=         5 IDoV= 1 UseB2=F ITyADJ=14
 ICtDFT=  3500011 ScaDFX=  1.000000  1.000000  1.000000  1.000000
 FoFCou: FMM=F IPFlag=           0 FMFlag=      100000 FMFlg1=           0
         NFxFlg=           0 DoJE=T BraDBF=F KetDBF=T FulRan=T
         wScrn=  0.000000 ICntrl=       500 IOpCl=  0 I1Cent=   200000004 NGrid=           0
         NMat0=    1 NMatS0=      1 NMatT0=    0 NMatD0=    1 NMtDS0=    0 NMtDT0=    0
 Petite list used in FoFCou.
 Requested convergence on RMS density matrix=1.00D-08 within 128 cycles.
 Requested convergence on MAX density matrix=1.00D-06.
 Requested convergence on             energy=1.00D-06.
 No special actions if energy rises.
 Integral accuracy reduced to 1.0D-05 until final iterations.
 Problem detected with inexpensive integrals.
 Switching to full accuracy and repeating last cycle.
 SCF Done:  E(RM062X) =  -2256.49360047     A.U. after   17 cycles
            NFock= 17  Conv=0.88D-08     -V/T= 2.0027

 **********************************************************************

            Population analysis using the SCF Density.

 **********************************************************************

 Orbital symmetries:
       Occupied  (A) (A) (A) (A) (A) (A) (A) (A) (A) (A) (A) (A)
                 (A) (A) (A) (A) (A) (A) (A) (A) (A) (A) (A) (A)
                 (A) (A) (A) (A) (A) (A) (A) (A) (A) (A) (A) (A)
                 (A) (A) (A) (A) (A) (A) (A) (A) (A) (A) (A) (A)
                 (A) (A) (A) (A) (A) (A) (A) (A) (A) (A) (A) (A)
                 (A) (A) (A) (A) (A) (A) (A) (A) (A) (A) (A) (A)
                 (A) (A) (A) (A) (A) (A) (A) (A) (A) (A) (A) (A)
                 (A) (A) (A) (A) (A) (A) (A) (A) (A) (A) (A) (A)
                 (A) (A) (A) (A) (A)
       Virtual   (A) (A) (A) (A) (A) (A) (A) (A) (A) (A) (A) (A)
                 (A) (A) (A) (A) (A) (A) (A) (A) (A) (A) (A) (A)
                 (A) (A) (A) (A) (A) (A) (A) (A) (A) (A) (A) (A)
                 (A) (A) (A) (A) (A) (A) (A) (A) (A) (A) (A) (A)
                 (A) (A) (A) (A) (A) (A) (A) (A) (A) (A) (A) (A)
                 (A) (A) (A) (A) (A) (A) (A) (A) (A) (A) (A) (A)
                 (A) (A) (A) (A) (A) (A) (A) (A) (A) (A) (A) (A)
                 (A) (A) (A) (A) (A) (A) (A) (A) (A) (A) (A) (A)
                 (A) (A) (A) (A) (A) (A) (A) (A) (A) (A) (A) (A)
                 (A) (A) (A) (A) (A) (A) (A) (A) (A) (A) (A) (A)
                 (A) (A) (A) (A) (A) (A) (A) (A) (A) (A) (A) (A)
                 (A) (A) (A) (A) (A) (A) (A) (A) (A) (A) (A) (A)
                 (A) (A) (A) (A) (A) (A) (A) (A) (A) (A) (A) (A)
                 (A) (A) (A) (A) (A) (A) (A) (A) (A) (A) (A) (A)
                 (A) (A) (A) (A) (A) (A) (A) (A) (A) (A) (A) (A)
                 (A) (A) (A) (A) (A) (A) (A) (A) (A) (A) (A) (A)
                 (A) (A) (A) (A) (A) (A) (A) (A) (A) (A) (A) (A)
                 (A) (A) (A) (A) (A) (A) (A) (A) (A) (A) (A) (A)
                 (A) (A) (A) (A) (A) (A) (A) (A) (A) (A) (A) (A)
                 (A) (A) (A) (A) (A) (A) (A) (A) (A) (A) (A) (A)
                 (A) (A) (A) (A) (A) (A) (A) (A) (A) (A) (A) (A)
                 (A) (A) (A) (A) (A) (A) (A) (A) (A) (A) (A) (A)
                 (A) (A) (A) (A) (A) (A) (A) (A) (A) (A) (A) (A)
                 (A) (A) (A) (A) (A) (A) (A) (A) (A) (A) (A) (A)
                 (A) (A) (A) (A) (A) (A) (A) (A) (A) (A) (A) (A)
                 (A) (A) (A) (A) (A) (A) (A) (A) (A) (A) (A) (A)
                 (A) (A) (A) (A) (A) (A) (A) (A) (A) (A) (A) (A)
                 (A) (A) (A) (A) (A) (A) (A) (A) (A) (A) (A) (A)
                 (A) (A) (A) (A) (A) (A) (A) (A) (A) (A) (A) (A)
                 (A) (A) (A) (A) (A) (A) (A) (A) (A) (A) (A) (A)
                 (A) (A) (A) (A) (A) (A) (A) (A) (A) (A) (A) (A)
                 (A) (A) (A) (A) (A) (A) (A) (A) (A) (A) (A) (A)
                 (A) (A) (A) (A) (A) (A) (A) (A) (A) (A) (A) (A)
                 (A) (A) (A) (A) (A) (A) (A) (A) (A) (A) (A) (A)
                 (A) (A) (A) (A) (A) (A) (A) (A) (A) (A) (A) (A)
                 (A) (A) (A) (A) (A) (A) (A) (A) (A) (A) (A) (A)
                 (A) (A) (A) (A) (A) (A) (A) (A) (A) (A) (A) (A)
                 (A) (A) (A) (A) (A) (A) (A) (A) (A) (A) (A) (A)
                 (A) (A) (A) (A) (A) (A) (A) (A) (A) (A) (A) (A)
                 (A) (A) (A) (A) (A) (A) (A) (A) (A) (A) (A) (A)
                 (A) (A) (A) (A) (A) (A) (A) (A) (A) (A) (A) (A)
                 (A) (A) (A) (A) (A) (A) (A) (A) (A) (A) (A) (A)
                 (A) (A) (A) (A) (A) (A) (A) (A) (A) (A) (A) (A)
                 (A) (A) (A) (A) (A) (A) (A) (A) (A) (A) (A) (A)
                 (A) (A) (A) (A) (A) (A) (A) (A) (A) (A) (A) (A)
                 (A) (A) (A) (A) (A) (A) (A) (A) (A) (A) (A) (A)
                 (A) (A) (A) (A) (A) (A) (A) (A) (A) (A) (A) (A)
                 (A) (A) (A) (A) (A) (A) (A) (A) (A) (A) (A) (A)
                 (A) (A) (A) (A) (A) (A) (A) (A) (A) (A) (A) (A)
                 (A) (A) (A) (A) (A) (A) (A) (A) (A) (A) (A) (A)
                 (A) (A) (A) (A) (A) (A) (A) (A) (A) (A) (A) (A)
                 (A) (A) (A) (A) (A) (A) (A) (A) (A) (A) (A) (A)
                 (A) (A) (A) (A) (A) (A) (A) (A) (A) (A) (A) (A)
                 (A) (A) (A) (A) (A) (A) (A) (A) (A) (A) (A) (A)
                 (A) (A) (A) (A) (A) (A) (A) (A) (A) (A) (A) (A)
                 (A) (A) (A) (A) (A) (A) (A) (A) (A) (A) (A) (A)
                 (A) (A) (A) (A) (A) (A) (A) (A) (A) (A) (A) (A)
                 (A) (A) (A) (A) (A) (A) (A) (A) (A) (A) (A) (A)
                 (A) (A) (A) (A) (A) (A) (A)
 The electronic state is 1-A.
 Alpha  occ. eigenvalues --  -90.28568 -90.28331 -25.35755 -25.31889 -25.31876
 Alpha  occ. eigenvalues --  -25.30103 -25.29847 -25.27855 -25.25102 -25.24457
 Alpha  occ. eigenvalues --  -25.24437 -25.20768 -10.63009 -10.62567 -10.59584
 Alpha  occ. eigenvalues --  -10.59449 -10.58763 -10.58668 -10.57759 -10.56276
 Alpha  occ. eigenvalues --  -10.56154 -10.55920 -10.55859 -10.55740  -8.59333
 Alpha  occ. eigenvalues --   -8.59165  -6.51700  -6.51581  -6.51522  -6.51433
 Alpha  occ. eigenvalues --   -6.51371  -6.51162  -1.51069  -1.50521  -1.44180
 Alpha  occ. eigenvalues --   -1.42292  -1.42107  -1.41823  -1.34466  -1.34049
 Alpha  occ. eigenvalues --   -1.33650  -1.30458  -1.02089  -0.98255  -0.95964
 Alpha  occ. eigenvalues --   -0.93779  -0.90053  -0.87691  -0.86119  -0.84634
 Alpha  occ. eigenvalues --   -0.76780  -0.76495  -0.74509  -0.74099  -0.73735
 Alpha  occ. eigenvalues --   -0.73631  -0.72820  -0.70667  -0.67659  -0.67322
 Alpha  occ. eigenvalues --   -0.66663  -0.66261  -0.65383  -0.65195  -0.62846
 Alpha  occ. eigenvalues --   -0.61603  -0.60444  -0.60208  -0.59930  -0.59709
 Alpha  occ. eigenvalues --   -0.59277  -0.58619  -0.57901  -0.57722  -0.57459
 Alpha  occ. eigenvalues --   -0.57371  -0.55839  -0.54949  -0.53230  -0.53202
 Alpha  occ. eigenvalues --   -0.51949  -0.51441  -0.51095  -0.50658  -0.49724
 Alpha  occ. eigenvalues --   -0.49154  -0.48955  -0.48442  -0.48208  -0.47200
 Alpha  occ. eigenvalues --   -0.46445  -0.45060  -0.44643  -0.43862  -0.43118
 Alpha  occ. eigenvalues --   -0.41984  -0.41619  -0.36311  -0.34125  -0.32649
 Alpha  occ. eigenvalues --   -0.30604
 Alpha virt. eigenvalues --   -0.07208  -0.05184  -0.03445  -0.02290   0.00265
 Alpha virt. eigenvalues --    0.02408   0.03949   0.05044   0.07224   0.08684
 Alpha virt. eigenvalues --    0.08860   0.09491   0.10411   0.11372   0.12015
 Alpha virt. eigenvalues --    0.12687   0.12946   0.13869   0.14498   0.15095
 Alpha virt. eigenvalues --    0.16022   0.16679   0.17759   0.18328   0.19423
 Alpha virt. eigenvalues --    0.20750   0.21472   0.22327   0.22848   0.23366
 Alpha virt. eigenvalues --    0.23712   0.24210   0.24441   0.25007   0.25352
 Alpha virt. eigenvalues --    0.25946   0.26599   0.26833   0.27681   0.28471
 Alpha virt. eigenvalues --    0.28850   0.29754   0.30403   0.30719   0.32246
 Alpha virt. eigenvalues --    0.32359   0.33324   0.34488   0.34802   0.34829
 Alpha virt. eigenvalues --    0.35498   0.35905   0.36500   0.36867   0.37211
 Alpha virt. eigenvalues --    0.37901   0.38333   0.38928   0.39241   0.39972
 Alpha virt. eigenvalues --    0.40370   0.40740   0.41938   0.42550   0.43103
 Alpha virt. eigenvalues --    0.43755   0.43863   0.44179   0.44879   0.45104
 Alpha virt. eigenvalues --    0.45825   0.46562   0.47348   0.47784   0.48982
 Alpha virt. eigenvalues --    0.49335   0.50184   0.51051   0.51195   0.51514
 Alpha virt. eigenvalues --    0.51705   0.52527   0.52839   0.53525   0.53946
 Alpha virt. eigenvalues --    0.54400   0.55154   0.56194   0.56742   0.57904
 Alpha virt. eigenvalues --    0.58903   0.59690   0.60217   0.60945   0.61895
 Alpha virt. eigenvalues --    0.62280   0.62524   0.63338   0.63517   0.64018
 Alpha virt. eigenvalues --    0.64912   0.65833   0.66253   0.67293   0.67729
 Alpha virt. eigenvalues --    0.68487   0.69020   0.69285   0.69516   0.70463
 Alpha virt. eigenvalues --    0.71139   0.71805   0.72034   0.72919   0.73347
 Alpha virt. eigenvalues --    0.74149   0.74720   0.75135   0.75501   0.76431
 Alpha virt. eigenvalues --    0.76706   0.76959   0.78117   0.78318   0.78596
 Alpha virt. eigenvalues --    0.78917   0.79780   0.80028   0.81223   0.81711
 Alpha virt. eigenvalues --    0.82779   0.83314   0.83619   0.83911   0.84879
 Alpha virt. eigenvalues --    0.85767   0.86121   0.86326   0.86972   0.87919
 Alpha virt. eigenvalues --    0.88977   0.89757   0.90445   0.90908   0.91368
 Alpha virt. eigenvalues --    0.92332   0.92923   0.93223   0.94530   0.94891
 Alpha virt. eigenvalues --    0.95273   0.95899   0.96270   0.98870   0.99451
 Alpha virt. eigenvalues --    1.00801   1.01658   1.02925   1.04777   1.04839
 Alpha virt. eigenvalues --    1.05629   1.05871   1.06141   1.08129   1.08607
 Alpha virt. eigenvalues --    1.10775   1.10876   1.12638   1.13023   1.13617
 Alpha virt. eigenvalues --    1.14613   1.15210   1.15744   1.16596   1.17826
 Alpha virt. eigenvalues --    1.19312   1.19602   1.20713   1.21721   1.22207
 Alpha virt. eigenvalues --    1.23190   1.24100   1.24450   1.25069   1.26151
 Alpha virt. eigenvalues --    1.27795   1.29526   1.29988   1.31085   1.31652
 Alpha virt. eigenvalues --    1.33722   1.34443   1.34931   1.35334   1.35658
 Alpha virt. eigenvalues --    1.36956   1.38587   1.39445   1.40550   1.40686
 Alpha virt. eigenvalues --    1.43149   1.43572   1.44328   1.44659   1.46242
 Alpha virt. eigenvalues --    1.47753   1.47966   1.49165   1.50019   1.50533
 Alpha virt. eigenvalues --    1.50846   1.51677   1.53146   1.53277   1.53848
 Alpha virt. eigenvalues --    1.54492   1.55553   1.56946   1.57243   1.58498
 Alpha virt. eigenvalues --    1.58631   1.59378   1.59619   1.61490   1.62868
 Alpha virt. eigenvalues --    1.63366   1.63675   1.64271   1.65412   1.66566
 Alpha virt. eigenvalues --    1.67424   1.70289   1.70800   1.72395   1.72667
 Alpha virt. eigenvalues --    1.72959   1.73669   1.74735   1.75025   1.75771
 Alpha virt. eigenvalues --    1.76332   1.76534   1.77967   1.79460   1.80849
 Alpha virt. eigenvalues --    1.82636   1.83528   1.85476   1.85936   1.87491
 Alpha virt. eigenvalues --    1.88086   1.88829   1.89085   1.90565   1.92251
 Alpha virt. eigenvalues --    1.92792   1.94905   1.96040   1.97049   1.97651
 Alpha virt. eigenvalues --    1.98099   1.99177   2.00465   2.00809   2.01306
 Alpha virt. eigenvalues --    2.02192   2.03032   2.04002   2.05664   2.05852
 Alpha virt. eigenvalues --    2.06558   2.07497   2.07754   2.08990   2.09829
 Alpha virt. eigenvalues --    2.11091   2.12082   2.14537   2.15264   2.15653
 Alpha virt. eigenvalues --    2.16146   2.16692   2.18194   2.18792   2.19290
 Alpha virt. eigenvalues --    2.20274   2.21736   2.21861   2.22822   2.24042
 Alpha virt. eigenvalues --    2.24238   2.24983   2.26053   2.26376   2.26978
 Alpha virt. eigenvalues --    2.28188   2.29255   2.31546   2.32287   2.33349
 Alpha virt. eigenvalues --    2.33405   2.34109   2.35315   2.37504   2.38890
 Alpha virt. eigenvalues --    2.41431   2.43702   2.44015   2.45439   2.46064
 Alpha virt. eigenvalues --    2.47112   2.47795   2.49201   2.49410   2.50882
 Alpha virt. eigenvalues --    2.51196   2.52110   2.53817   2.53904   2.54049
 Alpha virt. eigenvalues --    2.56174   2.56858   2.57567   2.58326   2.59284
 Alpha virt. eigenvalues --    2.60003   2.60312   2.60969   2.61601   2.61702
 Alpha virt. eigenvalues --    2.62179   2.62700   2.63527   2.63592   2.64597
 Alpha virt. eigenvalues --    2.64965   2.65641   2.65859   2.66443   2.67518
 Alpha virt. eigenvalues --    2.67789   2.68188   2.69072   2.69389   2.69850
 Alpha virt. eigenvalues --    2.70877   2.71549   2.72156   2.73294   2.73441
 Alpha virt. eigenvalues --    2.74377   2.74871   2.75812   2.76429   2.76603
 Alpha virt. eigenvalues --    2.77233   2.77743   2.78094   2.78441   2.79439
 Alpha virt. eigenvalues --    2.80208   2.80504   2.80808   2.82282   2.82488
 Alpha virt. eigenvalues --    2.83271   2.83609   2.84627   2.84912   2.85323
 Alpha virt. eigenvalues --    2.85925   2.86137   2.87221   2.87773   2.88649
 Alpha virt. eigenvalues --    2.90224   2.91730   2.92639   2.93533   2.94264
 Alpha virt. eigenvalues --    2.95339   2.96754   2.99436   3.00312   3.01206
 Alpha virt. eigenvalues --    3.01718   3.03390   3.04094   3.04759   3.05620
 Alpha virt. eigenvalues --    3.06344   3.08159   3.09465   3.10941   3.11334
 Alpha virt. eigenvalues --    3.12943   3.13106   3.14053   3.15729   3.16124
 Alpha virt. eigenvalues --    3.16936   3.17900   3.18255   3.19767   3.20217
 Alpha virt. eigenvalues --    3.22301   3.22923   3.24644   3.25769   3.26805
 Alpha virt. eigenvalues --    3.27446   3.27814   3.28776   3.29087   3.30102
 Alpha virt. eigenvalues --    3.30595   3.31226   3.31706   3.32887   3.33305
 Alpha virt. eigenvalues --    3.33957   3.35010   3.35390   3.35887   3.37275
 Alpha virt. eigenvalues --    3.37858   3.38631   3.39110   3.39828   3.40243
 Alpha virt. eigenvalues --    3.41000   3.41143   3.41876   3.42280   3.42893
 Alpha virt. eigenvalues --    3.44127   3.44341   3.45657   3.46337   3.47233
 Alpha virt. eigenvalues --    3.47792   3.48063   3.48899   3.49364   3.49574
 Alpha virt. eigenvalues --    3.50586   3.51416   3.52151   3.52971   3.53989
 Alpha virt. eigenvalues --    3.55057   3.55190   3.56532   3.59329   3.60101
 Alpha virt. eigenvalues --    3.61217   3.61836   3.62222   3.64316   3.67133
 Alpha virt. eigenvalues --    3.67523   3.69403   3.72886   3.73488   3.73925
 Alpha virt. eigenvalues --    3.74915   3.76351   3.78325   3.78636   3.79134
 Alpha virt. eigenvalues --    3.81157   3.82758   3.84674   3.87346   3.87753
 Alpha virt. eigenvalues --    3.89140   3.90701   3.92716   3.94112   3.94343
 Alpha virt. eigenvalues --    3.97140   3.97807   3.98541   3.99984   4.01027
 Alpha virt. eigenvalues --    4.01630   4.02640   4.03183   4.03834   4.04462
 Alpha virt. eigenvalues --    4.06842   4.07827   4.10554   4.11502   4.11732
 Alpha virt. eigenvalues --    4.12223   4.14686   4.15213   4.16049   4.16478
 Alpha virt. eigenvalues --    4.17205   4.17806   4.19006   4.19814   4.20303
 Alpha virt. eigenvalues --    4.20878   4.24453   4.27242   4.28425   4.28947
 Alpha virt. eigenvalues --    4.29256   4.34667   4.35766   4.40154   4.42975
 Alpha virt. eigenvalues --    4.46179   4.46957   4.48539   4.53831   4.55835
 Alpha virt. eigenvalues --    4.56353   4.59201   4.60018   4.62901   4.63932
 Alpha virt. eigenvalues --    4.64826   4.67533   4.69757   4.73034   4.77918
 Alpha virt. eigenvalues --    4.82549   4.83176   4.85969   4.88035   4.92192
 Alpha virt. eigenvalues --    4.95593   4.97674   5.00424   5.02125   5.07764
 Alpha virt. eigenvalues --    5.11187   5.13017   5.16085   5.16462   5.20822
 Alpha virt. eigenvalues --    5.28017   5.31866   5.33168   5.36203   5.38046
 Alpha virt. eigenvalues --    5.48430   5.50212   5.67297   6.77407   6.77426
 Alpha virt. eigenvalues --    6.77975   6.79138   6.79406   6.80514   6.80909
 Alpha virt. eigenvalues --    6.81162   6.81196   6.81794   6.81916   6.82286
 Alpha virt. eigenvalues --    6.82752   6.82957   6.83107   6.83236   6.83484
 Alpha virt. eigenvalues --    6.84704   6.84821   6.84853   6.84900   6.85178
 Alpha virt. eigenvalues --    6.85252   6.86037   6.86174   6.86408   6.86438
 Alpha virt. eigenvalues --    6.86964   6.87069   6.87182   6.87401   6.87632
 Alpha virt. eigenvalues --    6.87777   6.89297   6.89791   6.90179   6.90490
 Alpha virt. eigenvalues --    6.90927   6.91216   6.91303   6.91657   6.92356
 Alpha virt. eigenvalues --    6.92890   6.93003   6.93592   6.94155   6.94326
 Alpha virt. eigenvalues --    6.95529   6.95681   6.95867   6.96696   6.96957
 Alpha virt. eigenvalues --    6.98668   6.99169   7.00001   7.00674   7.00986
 Alpha virt. eigenvalues --    7.03003   7.03959   7.04314   7.04730   7.04873
 Alpha virt. eigenvalues --    7.14093   7.14528   7.17367   7.18390   7.25013
 Alpha virt. eigenvalues --    7.27855   7.29645   7.33645   8.17605   8.18466
 Alpha virt. eigenvalues --    8.19841   8.21432   8.22747   8.22810   8.25906
 Alpha virt. eigenvalues --    8.28753   8.29012   8.31956   8.33016   8.33984
 Alpha virt. eigenvalues --    8.34607   8.36347   8.38432   8.40188   8.41158
 Alpha virt. eigenvalues --    8.44425   8.44496   8.46106   8.52429   8.52875
 Alpha virt. eigenvalues --    8.54863   8.55043   8.55885   8.57365   8.60034
 Alpha virt. eigenvalues --    8.61543   8.62904   8.65285   8.68856   8.69034
 Alpha virt. eigenvalues --    8.69534   8.72814   8.73676   8.74723   8.74871
 Alpha virt. eigenvalues --    8.75200   8.76094   8.79255   8.79762   8.81029
 Alpha virt. eigenvalues --    8.84185   8.86257   8.93692   8.93907   8.95266
 Alpha virt. eigenvalues --    8.98135   9.01213   9.12678   9.45388   9.47222
 Alpha virt. eigenvalues --    9.53240   9.57264   9.57956   9.58815  20.68515
 Alpha virt. eigenvalues --   20.77664  22.05712  22.39119  22.66918  22.69925
 Alpha virt. eigenvalues --   22.80720  22.84905  22.89485  22.91468  22.94449
 Alpha virt. eigenvalues --   23.00208  23.22209  23.39600  57.09889  57.11270
 Alpha virt. eigenvalues --   57.19092  57.21478  57.36640  57.42228  57.53460
 Alpha virt. eigenvalues --   57.57221  57.64015  57.69791
          Condensed to atoms (all electrons):
               1          2          3          4          5          6
     1  C    5.089723   0.479557  -0.036586  -0.052811  -0.036983   0.471685
     2  C    0.479557   5.045511   0.484669  -0.029295  -0.058484  -0.017004
     3  C   -0.036586   0.484669   4.919692   0.503977  -0.023457  -0.064620
     4  C   -0.052811  -0.029295   0.503977   4.887373   0.505946  -0.025246
     5  C   -0.036983  -0.058484  -0.023457   0.505946   4.918220   0.479279
     6  C    0.471685  -0.017004  -0.064620  -0.025246   0.479279   5.062491
     7  H    0.004810  -0.030112   0.409392  -0.031878   0.003955  -0.000208
     8  H    0.004758  -0.000110   0.003802  -0.030906   0.408946  -0.030767
     9  H   -0.033933   0.396433  -0.022785   0.003747  -0.000946   0.006526
    10  H   -0.035968   0.005772  -0.000663   0.002893  -0.020783   0.395687
    11  C    0.000487   0.000614   0.000105  -0.000029   0.000101  -0.000467
    12  C    0.003812   0.003872   0.000023  -0.000070   0.000176  -0.002414
    13  C   -0.070885  -0.000850   0.001002   0.000148  -0.001137   0.018743
    14  C    0.214720  -0.095872   0.007180  -0.002763   0.007226  -0.086432
    15  C   -0.088515   0.019726  -0.000715   0.000066   0.001342  -0.010353
    16  C   -0.010586  -0.003448   0.000006  -0.000016  -0.000198   0.006054
    17  H    0.000368   0.000003   0.000000  -0.000000   0.000000  -0.000009
    18  H    0.001168   0.003165   0.000626  -0.000014  -0.000126   0.000604
    19  H    0.001749   0.000582  -0.000153  -0.000020   0.000469   0.002668
    20  F   -0.000065  -0.000009  -0.000000   0.000000  -0.000000   0.000000
    21  F   -0.000001   0.000000   0.000000  -0.000000   0.000000  -0.000000
    22  F   -0.000276  -0.000069   0.000003  -0.000000   0.000001   0.000014
    23  F   -0.000088  -0.000002   0.000000  -0.000000   0.000001   0.000007
    24  F    0.000250   0.000004  -0.000000   0.000000  -0.000003  -0.000215
    25  F   -0.000005   0.000000  -0.000000   0.000000  -0.000000  -0.000000
    26  S   -0.000688   0.000018  -0.000000   0.000000  -0.000001   0.000014
    27  F    0.000380  -0.000549   0.000004   0.000000  -0.000000  -0.000006
    28  F    0.000025  -0.000008   0.000000   0.000000  -0.000000   0.000000
    29  S   -0.001373   0.000020  -0.000001   0.000001  -0.000003  -0.000014
    30  F   -0.000048   0.000001  -0.000000   0.000000  -0.000000  -0.000012
    31  F   -0.000097   0.000002   0.000000  -0.000000   0.000000  -0.000003
    32  H    0.000759   0.004345  -0.033815   0.410129  -0.034293   0.004573
               7          8          9         10         11         12
     1  C    0.004810   0.004758  -0.033933  -0.035968   0.000487   0.003812
     2  C   -0.030112  -0.000110   0.396433   0.005772   0.000614   0.003872
     3  C    0.409392   0.003802  -0.022785  -0.000663   0.000105   0.000023
     4  C   -0.031878  -0.030906   0.003747   0.002893  -0.000029  -0.000070
     5  C    0.003955   0.408946  -0.000946  -0.020783   0.000101   0.000176
     6  C   -0.000208  -0.030767   0.006526   0.395687  -0.000467  -0.002414
     7  H    0.500179  -0.000242  -0.003287   0.000058   0.000000   0.000008
     8  H   -0.000242   0.501336   0.000055  -0.003239   0.000000  -0.000001
     9  H   -0.003287   0.000055   0.476997  -0.000164   0.000159  -0.001359
    10  H    0.000058  -0.003239  -0.000164   0.483835  -0.000101  -0.000214
    11  C    0.000000   0.000000   0.000159  -0.000101   6.068560  -0.023844
    12  C    0.000008  -0.000001  -0.001359  -0.000214  -0.023844   5.708272
    13  C    0.000064   0.000034   0.003382   0.001202  -0.071314   0.158609
    14  C   -0.000312  -0.000252  -0.005217  -0.001042  -0.111882   0.101261
    15  C    0.000014   0.000019   0.001043   0.002613  -0.106128  -0.161744
    16  C   -0.000001  -0.000003  -0.000306   0.000431  -0.035016   0.195940
    17  H    0.000000   0.000000   0.000002  -0.000000   0.353098  -0.051901
    18  H    0.000035   0.000002  -0.000448   0.000079   0.020687  -0.012694
    19  H    0.000001   0.000037   0.000077  -0.001244   0.012209  -0.002348
    20  F   -0.000000  -0.000000   0.000002  -0.000000  -0.001920   0.015246
    21  F    0.000000   0.000000  -0.000000  -0.000000   0.014253  -0.035886
    22  F    0.000000   0.000000  -0.000013  -0.000000   0.017541  -0.133774
    23  F    0.000000  -0.000000  -0.000000  -0.000009   0.002613  -0.000451
    24  F   -0.000000  -0.000000   0.000000   0.000237   0.002004  -0.000354
    25  F   -0.000000  -0.000000  -0.000000   0.000000   0.004772   0.000325
    26  S   -0.000000   0.000000   0.000038   0.000000  -0.113856   0.339163
    27  F   -0.000001   0.000000   0.001165   0.000000   0.006444  -0.083728
    28  F   -0.000000  -0.000000   0.000017   0.000000   0.023095  -0.054286
    29  S   -0.000000  -0.000000  -0.000000   0.000056   0.010314   0.002703
    30  F   -0.000000  -0.000000  -0.000000  -0.000005   0.006907  -0.003622
    31  F   -0.000000  -0.000000   0.000000  -0.000001   0.005028  -0.001281
    32  H   -0.003771  -0.003767  -0.000248  -0.000264  -0.000000   0.000000
              13         14         15         16         17         18
     1  C   -0.070885   0.214720  -0.088515  -0.010586   0.000368   0.001168
     2  C   -0.000850  -0.095872   0.019726  -0.003448   0.000003   0.003165
     3  C    0.001002   0.007180  -0.000715   0.000006   0.000000   0.000626
     4  C    0.000148  -0.002763   0.000066  -0.000016  -0.000000  -0.000014
     5  C   -0.001137   0.007226   0.001342  -0.000198   0.000000  -0.000126
     6  C    0.018743  -0.086432  -0.010353   0.006054  -0.000009   0.000604
     7  H    0.000064  -0.000312   0.000014  -0.000001   0.000000   0.000035
     8  H    0.000034  -0.000252   0.000019  -0.000003   0.000000   0.000002
     9  H    0.003382  -0.005217   0.001043  -0.000306   0.000002  -0.000448
    10  H    0.001202  -0.001042   0.002613   0.000431  -0.000000   0.000079
    11  C   -0.071314  -0.111882  -0.106128  -0.035016   0.353098   0.020687
    12  C    0.158609   0.101261  -0.161744   0.195940  -0.051901  -0.012694
    13  C    5.529026   0.349480  -0.015043  -0.091994   0.009688   0.360990
    14  C    0.349480   5.350596   0.095455   0.153048  -0.000870  -0.039211
    15  C   -0.015043   0.095455   6.056956  -0.001438   0.021362   0.012869
    16  C   -0.091994   0.153048  -0.001438   5.817620   0.010944  -0.004743
    17  H    0.009688  -0.000870   0.021362   0.010944   0.478979  -0.000049
    18  H    0.360990  -0.039211   0.012869  -0.004743  -0.000049   0.446604
    19  H    0.009911  -0.020151   0.370955  -0.033292  -0.000110  -0.000038
    20  F    0.000637  -0.000572   0.000005  -0.000499   0.000048   0.002066
    21  F   -0.000252  -0.000098   0.000063  -0.000784   0.005323   0.000108
    22  F    0.006449  -0.008680   0.000691  -0.006967   0.000934   0.005879
    23  F    0.000225  -0.000436   0.010890  -0.032912   0.000210   0.000000
    24  F    0.000042  -0.000599   0.013401  -0.033962   0.000199  -0.000000
    25  F    0.000061  -0.000706   0.000010   0.006710   0.001914   0.000000
    26  S    0.014314  -0.001192   0.000267   0.010760  -0.009361  -0.003990
    27  F   -0.014263  -0.003268   0.000508  -0.004599  -0.000018   0.009579
    28  F    0.006766  -0.000997   0.000412  -0.001549   0.003538   0.000878
    29  S    0.000355   0.005727  -0.096439   0.331014  -0.005381   0.000018
    30  F    0.000871  -0.008139   0.022823  -0.134867   0.005135   0.000003
    31  F    0.000563  -0.006800   0.017932  -0.130843   0.004976  -0.000000
    32  H   -0.000008   0.000079  -0.000014   0.000000  -0.000000  -0.000001
              19         20         21         22         23         24
     1  C    0.001749  -0.000065  -0.000001  -0.000276  -0.000088   0.000250
     2  C    0.000582  -0.000009   0.000000  -0.000069  -0.000002   0.000004
     3  C   -0.000153  -0.000000   0.000000   0.000003   0.000000  -0.000000
     4  C   -0.000020   0.000000  -0.000000  -0.000000  -0.000000   0.000000
     5  C    0.000469  -0.000000   0.000000   0.000001   0.000001  -0.000003
     6  C    0.002668   0.000000  -0.000000   0.000014   0.000007  -0.000215
     7  H    0.000001  -0.000000   0.000000   0.000000   0.000000  -0.000000
     8  H    0.000037  -0.000000   0.000000   0.000000  -0.000000  -0.000000
     9  H    0.000077   0.000002  -0.000000  -0.000013  -0.000000   0.000000
    10  H   -0.001244  -0.000000  -0.000000  -0.000000  -0.000009   0.000237
    11  C    0.012209  -0.001920   0.014253   0.017541   0.002613   0.002004
    12  C   -0.002348   0.015246  -0.035886  -0.133774  -0.000451  -0.000354
    13  C    0.009911   0.000637  -0.000252   0.006449   0.000225   0.000042
    14  C   -0.020151  -0.000572  -0.000098  -0.008680  -0.000436  -0.000599
    15  C    0.370955   0.000005   0.000063   0.000691   0.010890   0.013401
    16  C   -0.033292  -0.000499  -0.000784  -0.006967  -0.032912  -0.033962
    17  H   -0.000110   0.000048   0.005323   0.000934   0.000210   0.000199
    18  H   -0.000038   0.002066   0.000108   0.005879   0.000000  -0.000000
    19  H    0.458453   0.000000  -0.000000   0.000005   0.005871   0.005142
    20  F    0.000000   9.232659  -0.011895  -0.185090  -0.000000  -0.000000
    21  F   -0.000000  -0.011895   8.986866  -0.035216  -0.000000  -0.000000
    22  F    0.000005  -0.185090  -0.035216   9.323265  -0.000000  -0.000000
    23  F    0.005871  -0.000000  -0.000000  -0.000000   9.075778  -0.043972
    24  F    0.005142  -0.000000  -0.000000  -0.000000  -0.043972   9.079724
    25  F    0.000207   0.000000   0.000000   0.000000  -0.010257  -0.010314
    26  S    0.000020   0.263839   0.250867   0.243013   0.000000   0.000000
    27  F    0.000006  -0.141790   0.002518  -0.003414  -0.000000  -0.000000
    28  F    0.000000  -0.012636  -0.020082   0.001819  -0.000000  -0.000000
    29  S   -0.005042   0.000000   0.000003   0.000005   0.263220   0.262081
    30  F    0.001145   0.000000   0.000002   0.000002   0.002091  -0.099440
    31  F    0.000851   0.000000   0.000000   0.000000  -0.098770   0.002082
    32  H   -0.000001  -0.000000  -0.000000  -0.000000  -0.000000   0.000000
              25         26         27         28         29         30
     1  C   -0.000005  -0.000688   0.000380   0.000025  -0.001373  -0.000048
     2  C    0.000000   0.000018  -0.000549  -0.000008   0.000020   0.000001
     3  C   -0.000000  -0.000000   0.000004   0.000000  -0.000001  -0.000000
     4  C    0.000000   0.000000   0.000000   0.000000   0.000001   0.000000
     5  C   -0.000000  -0.000001  -0.000000  -0.000000  -0.000003  -0.000000
     6  C   -0.000000   0.000014  -0.000006   0.000000  -0.000014  -0.000012
     7  H   -0.000000  -0.000000  -0.000001  -0.000000  -0.000000  -0.000000
     8  H   -0.000000   0.000000   0.000000  -0.000000  -0.000000  -0.000000
     9  H   -0.000000   0.000038   0.001165   0.000017  -0.000000  -0.000000
    10  H    0.000000   0.000000   0.000000   0.000000   0.000056  -0.000005
    11  C    0.004772  -0.113856   0.006444   0.023095   0.010314   0.006907
    12  C    0.000325   0.339163  -0.083728  -0.054286   0.002703  -0.003622
    13  C    0.000061   0.014314  -0.014263   0.006766   0.000355   0.000871
    14  C   -0.000706  -0.001192  -0.003268  -0.000997   0.005727  -0.008139
    15  C    0.000010   0.000267   0.000508   0.000412  -0.096439   0.022823
    16  C    0.006710   0.010760  -0.004599  -0.001549   0.331014  -0.134867
    17  H    0.001914  -0.009361  -0.000018   0.003538  -0.005381   0.005135
    18  H    0.000000  -0.003990   0.009579   0.000878   0.000018   0.000003
    19  H    0.000207   0.000020   0.000006   0.000000  -0.005042   0.001145
    20  F    0.000000   0.263839  -0.141790  -0.012636   0.000000   0.000000
    21  F    0.000000   0.250867   0.002518  -0.020082   0.000003   0.000002
    22  F    0.000000   0.243013  -0.003414   0.001819   0.000005   0.000002
    23  F   -0.010257   0.000000  -0.000000  -0.000000   0.263220   0.002091
    24  F   -0.010314   0.000000  -0.000000  -0.000000   0.262081  -0.099440
    25  F    9.140917  -0.000000   0.000000   0.000000   0.277133  -0.125761
    26  S   -0.000000  13.684122   0.234738   0.267577  -0.000049  -0.000011
    27  F    0.000000   0.234738   9.511728  -0.255270   0.000003   0.000000
    28  F    0.000000   0.267577  -0.255270   9.198206   0.000003   0.000000
    29  S    0.277133  -0.000049   0.000003   0.000003  13.623482   0.245947
    30  F   -0.125761  -0.000011   0.000000   0.000000   0.245947   9.319212
    31  F   -0.124441  -0.000024   0.000001   0.000001   0.246791   0.003717
    32  H   -0.000000  -0.000000  -0.000000   0.000000  -0.000000   0.000000
              31         32
     1  C   -0.000097   0.000759
     2  C    0.000002   0.004345
     3  C    0.000000  -0.033815
     4  C   -0.000000   0.410129
     5  C    0.000000  -0.034293
     6  C   -0.000003   0.004573
     7  H   -0.000000  -0.003771
     8  H   -0.000000  -0.003767
     9  H    0.000000  -0.000248
    10  H   -0.000001  -0.000264
    11  C    0.005028  -0.000000
    12  C   -0.001281   0.000000
    13  C    0.000563  -0.000008
    14  C   -0.006800   0.000079
    15  C    0.017932  -0.000014
    16  C   -0.130843   0.000000
    17  H    0.004976  -0.000000
    18  H   -0.000000  -0.000001
    19  H    0.000851  -0.000001
    20  F    0.000000  -0.000000
    21  F    0.000000  -0.000000
    22  F    0.000000  -0.000000
    23  F   -0.098770  -0.000000
    24  F    0.002082   0.000000
    25  F   -0.124441  -0.000000
    26  S   -0.000024  -0.000000
    27  F    0.000001  -0.000000
    28  F    0.000001   0.000000
    29  S    0.246791  -0.000000
    30  F    0.003717   0.000000
    31  F    9.316114  -0.000000
    32  H   -0.000000   0.508291
 Mulliken charges:
               1
     1  C    0.094657
     2  C   -0.208479
     3  C   -0.147687
     4  C   -0.141234
     5  C   -0.149249
     6  C   -0.210575
     7  H    0.151294
     8  H    0.150296
     9  H    0.179063
    10  H    0.170836
    11  C   -0.084435
    12  C    0.040559
    13  C   -0.206817
    14  C    0.110720
    15  C   -0.169030
    16  C   -0.004503
    17  H    0.170975
    18  H    0.195951
    19  H    0.192041
    20  F   -0.160026
    21  F   -0.155788
    22  F   -0.226124
    23  F   -0.174009
    24  F   -0.176306
    25  F   -0.160564
    26  S    0.820423
    27  F   -0.260169
    28  F   -0.157511
    29  S    0.839431
    30  F   -0.235949
    31  F   -0.235798
    32  H    0.148006
 Sum of Mulliken charges =  -0.00000
 Mulliken charges with hydrogens summed into heavy atoms:
               1
     1  C    0.094657
     2  C   -0.029416
     3  C    0.003606
     4  C    0.006772
     5  C    0.001047
     6  C   -0.039739
    11  C    0.086540
    12  C    0.040559
    13  C   -0.010866
    14  C    0.110720
    15  C    0.023011
    16  C   -0.004503
    20  F   -0.160026
    21  F   -0.155788
    22  F   -0.226124
    23  F   -0.174009
    24  F   -0.176306
    25  F   -0.160564
    26  S    0.820423
    27  F   -0.260169
    28  F   -0.157511
    29  S    0.839431
    30  F   -0.235949
    31  F   -0.235798
 Electronic spatial extent (au):  <R**2>=           9636.9821
 Charge=             -0.0000 electrons
 Dipole moment (field-independent basis, Debye):
    X=             -2.6068    Y=             -1.1023    Z=             -0.3812  Tot=              2.8558
 Quadrupole moment (field-independent basis, Debye-Ang):
   XX=           -129.7703   YY=           -149.8577   ZZ=           -153.4151
   XY=              5.9554   XZ=             -1.1248   YZ=              2.4284
 Traceless Quadrupole moment (field-independent basis, Debye-Ang):
   XX=             14.5774   YY=             -5.5100   ZZ=             -9.0674
   XY=              5.9554   XZ=             -1.1248   YZ=              2.4284
 Octapole moment (field-independent basis, Debye-Ang**2):
  XXX=             29.3543  YYY=            -23.8469  ZZZ=              1.0230  XYY=             34.0683
  XXY=             18.2943  XXZ=              0.2746  XZZ=             37.4366  YZZ=              3.2426
  YYZ=             -5.7393  XYZ=            -21.1518
 Hexadecapole moment (field-independent basis, Debye-Ang**3):
 XXXX=          -5388.1802 YYYY=          -4651.1404 ZZZZ=           -622.9746 XXXY=             38.8288
 XXXZ=            -27.6675 YYYX=            -28.9165 YYYZ=            -14.0010 ZZZX=             -1.5097
 ZZZY=             -4.2067 XXYY=          -1712.1414 XXZZ=          -1153.1305 YYZZ=           -896.3840
 XXYZ=             82.5153 YYXZ=              8.7696 ZZXY=             -6.2720
 N-N= 2.845216582810D+03 E-N=-1.103200075203D+04  KE= 2.250332998834D+03
 ******************************Gaussian NBO Version 3.1******************************
             N A T U R A L   A T O M I C   O R B I T A L   A N D
          N A T U R A L   B O N D   O R B I T A L   A N A L Y S I S
 ******************************Gaussian NBO Version 3.1******************************
       /RESON  / : Allow strongly delocalized NBO set

 Analyzing the SCF density

 Job title: Structure697                                                    

 Storage needed:   1943156 in NPA,   2589137 in NBO (1048570432 available)
 GSVD:  LWork=      132326 too small for GESVD, short by      891309 words or      891309 for optimal perf.


 NATURAL POPULATIONS:  Natural atomic orbital occupancies 
                                                          
   NAO  Atom  No  lang   Type(AO)    Occupancy      Energy
 ----------------------------------------------------------
     1    C    1  S      Cor( 1S)     1.99910     -10.41442
     2    C    1  S      Val( 2S)     0.90759      -0.22237
     3    C    1  S      Ryd( 4S)     0.00078       1.63846
     4    C    1  S      Ryd( 3S)     0.00002       1.42985
     5    C    1  S      Ryd( 5S)     0.00000      21.44636
     6    C    1  px     Val( 2p)     1.02976      -0.07759
     7    C    1  px     Ryd( 3p)     0.00621       1.23919
     8    C    1  px     Ryd( 4p)     0.00064       1.85949
     9    C    1  py     Val( 2p)     1.06129      -0.10905
    10    C    1  py     Ryd( 3p)     0.00380       1.03269
    11    C    1  py     Ryd( 4p)     0.00030       1.44745
    12    C    1  pz     Val( 2p)     1.04416      -0.12073
    13    C    1  pz     Ryd( 3p)     0.00170       0.86528
    14    C    1  pz     Ryd( 4p)     0.00025       1.37642
    15    C    1  dxy    Ryd( 3d)     0.00124       2.04950
    16    C    1  dxy    Ryd( 4d)     0.00038       3.42110
    17    C    1  dxz    Ryd( 3d)     0.00059       1.57211
    18    C    1  dxz    Ryd( 4d)     0.00029       3.38124
    19    C    1  dyz    Ryd( 3d)     0.00057       1.83454
    20    C    1  dyz    Ryd( 4d)     0.00025       3.40693
    21    C    1  dx2y2  Ryd( 3d)     0.00100       2.20722
    22    C    1  dx2y2  Ryd( 4d)     0.00050       3.50452
    23    C    1  dz2    Ryd( 3d)     0.00028       1.50613
    24    C    1  dz2    Ryd( 4d)     0.00039       3.51181
    25    C    1  f(0)   Ryd( 4f)     0.00005       3.66110
    26    C    1  f(C1)  Ryd( 4f)     0.00005       3.76453
    27    C    1  f(S1)  Ryd( 4f)     0.00010       3.51746
    28    C    1  f(C2)  Ryd( 4f)     0.00009       3.78025
    29    C    1  f(S2)  Ryd( 4f)     0.00007       3.95169
    30    C    1  f(C3)  Ryd( 4f)     0.00009       4.02925
    31    C    1  f(S3)  Ryd( 4f)     0.00003       4.08870
 
    32    C    2  S      Cor( 1S)     1.99917     -10.39983
    33    C    2  S      Val( 2S)     0.97094      -0.24569
    34    C    2  S      Ryd( 3S)     0.00087       1.46818
    35    C    2  S      Ryd( 4S)     0.00005       1.57448
    36    C    2  S      Ryd( 5S)     0.00001      21.12902
    37    C    2  px     Val( 2p)     1.07449      -0.08449
    38    C    2  px     Ryd( 3p)     0.00294       1.15706
    39    C    2  px     Ryd( 4p)     0.00015       2.39825
    40    C    2  py     Val( 2p)     1.08333      -0.10150
    41    C    2  py     Ryd( 3p)     0.00310       0.96325
    42    C    2  py     Ryd( 4p)     0.00025       2.10500
    43    C    2  pz     Val( 2p)     1.04454      -0.11311
    44    C    2  pz     Ryd( 3p)     0.00221       0.83332
    45    C    2  pz     Ryd( 4p)     0.00028       1.86462
    46    C    2  dxy    Ryd( 3d)     0.00133       1.63243
    47    C    2  dxy    Ryd( 4d)     0.00053       3.33933
    48    C    2  dxz    Ryd( 3d)     0.00083       1.55403
    49    C    2  dxz    Ryd( 4d)     0.00038       3.22685
    50    C    2  dyz    Ryd( 3d)     0.00089       1.62049
    51    C    2  dyz    Ryd( 4d)     0.00019       3.32133
    52    C    2  dx2y2  Ryd( 3d)     0.00123       1.72371
    53    C    2  dx2y2  Ryd( 4d)     0.00032       3.38368
    54    C    2  dz2    Ryd( 3d)     0.00063       1.45115
    55    C    2  dz2    Ryd( 4d)     0.00009       3.07882
    56    C    2  f(0)   Ryd( 4f)     0.00017       3.55094
    57    C    2  f(C1)  Ryd( 4f)     0.00009       3.58246
    58    C    2  f(S1)  Ryd( 4f)     0.00020       3.35182
    59    C    2  f(C2)  Ryd( 4f)     0.00014       3.63943
    60    C    2  f(S2)  Ryd( 4f)     0.00011       3.79321
    61    C    2  f(C3)  Ryd( 4f)     0.00009       3.93530
    62    C    2  f(S3)  Ryd( 4f)     0.00007       3.78401
 
    63    C    3  S      Cor( 1S)     1.99924     -10.39770
    64    C    3  S      Val( 2S)     0.97712      -0.25012
    65    C    3  S      Ryd( 3S)     0.00082       1.20350
    66    C    3  S      Ryd( 4S)     0.00005       1.27040
    67    C    3  S      Ryd( 5S)     0.00000      21.61702
    68    C    3  px     Val( 2p)     1.08072      -0.07948
    69    C    3  px     Ryd( 3p)     0.00387       1.05427
    70    C    3  px     Ryd( 4p)     0.00026       2.15372
    71    C    3  py     Val( 2p)     1.08082      -0.10134
    72    C    3  py     Ryd( 3p)     0.00327       0.98008
    73    C    3  py     Ryd( 4p)     0.00022       1.83229
    74    C    3  pz     Val( 2p)     1.04485      -0.11363
    75    C    3  pz     Ryd( 3p)     0.00247       0.86642
    76    C    3  pz     Ryd( 4p)     0.00028       1.62350
    77    C    3  dxy    Ryd( 3d)     0.00084       1.72128
    78    C    3  dxy    Ryd( 4d)     0.00052       3.34747
    79    C    3  dxz    Ryd( 3d)     0.00055       1.57061
    80    C    3  dxz    Ryd( 4d)     0.00039       3.16632
    81    C    3  dyz    Ryd( 3d)     0.00102       1.57851
    82    C    3  dyz    Ryd( 4d)     0.00022       3.26672
    83    C    3  dx2y2  Ryd( 3d)     0.00150       1.60772
    84    C    3  dx2y2  Ryd( 4d)     0.00037       3.29327
    85    C    3  dz2    Ryd( 3d)     0.00050       1.41410
    86    C    3  dz2    Ryd( 4d)     0.00012       3.02651
    87    C    3  f(0)   Ryd( 4f)     0.00016       3.49337
    88    C    3  f(C1)  Ryd( 4f)     0.00006       3.55628
    89    C    3  f(S1)  Ryd( 4f)     0.00015       3.35063
    90    C    3  f(C2)  Ryd( 4f)     0.00012       3.63184
    91    C    3  f(S2)  Ryd( 4f)     0.00012       3.75953
    92    C    3  f(C3)  Ryd( 4f)     0.00006       3.92710
    93    C    3  f(S3)  Ryd( 4f)     0.00007       3.73883
 
    94    C    4  S      Cor( 1S)     1.99924     -10.39675
    95    C    4  S      Val( 2S)     0.97838      -0.25091
    96    C    4  S      Ryd( 3S)     0.00081       1.23713
    97    C    4  S      Ryd( 4S)     0.00004       1.26870
    98    C    4  S      Ryd( 5S)     0.00000      21.60318
    99    C    4  px     Val( 2p)     1.17131      -0.08619
   100    C    4  px     Ryd( 3p)     0.00460       1.18178
   101    C    4  px     Ryd( 4p)     0.00014       2.08278
   102    C    4  py     Val( 2p)     1.02674      -0.09581
   103    C    4  py     Ryd( 3p)     0.00285       0.88417
   104    C    4  py     Ryd( 4p)     0.00035       1.92078
   105    C    4  pz     Val( 2p)     1.00797      -0.11024
   106    C    4  pz     Ryd( 3p)     0.00225       0.79803
   107    C    4  pz     Ryd( 4p)     0.00035       1.66167
   108    C    4  dxy    Ryd( 3d)     0.00135       1.60451
   109    C    4  dxy    Ryd( 4d)     0.00037       3.10740
   110    C    4  dxz    Ryd( 3d)     0.00092       1.49177
   111    C    4  dxz    Ryd( 4d)     0.00023       2.96054
   112    C    4  dyz    Ryd( 3d)     0.00088       1.73251
   113    C    4  dyz    Ryd( 4d)     0.00013       3.39408
   114    C    4  dx2y2  Ryd( 3d)     0.00072       1.82728
   115    C    4  dx2y2  Ryd( 4d)     0.00060       3.30927
   116    C    4  dz2    Ryd( 3d)     0.00026       1.54782
   117    C    4  dz2    Ryd( 4d)     0.00028       3.01756
   118    C    4  f(0)   Ryd( 4f)     0.00008       3.49910
   119    C    4  f(C1)  Ryd( 4f)     0.00007       3.52787
   120    C    4  f(S1)  Ryd( 4f)     0.00017       3.47808
   121    C    4  f(C2)  Ryd( 4f)     0.00013       3.55453
   122    C    4  f(S2)  Ryd( 4f)     0.00019       3.84674
   123    C    4  f(C3)  Ryd( 4f)     0.00005       3.85959
   124    C    4  f(S3)  Ryd( 4f)     0.00004       3.64343
 
   125    C    5  S      Cor( 1S)     1.99924     -10.39835
   126    C    5  S      Val( 2S)     0.97670      -0.25060
   127    C    5  S      Ryd( 3S)     0.00083       1.19996
   128    C    5  S      Ryd( 4S)     0.00005       1.27631
   129    C    5  S      Ryd( 5S)     0.00000      21.61219
   130    C    5  px     Val( 2p)     1.07003      -0.07939
   131    C    5  px     Ryd( 3p)     0.00380       1.03734
   132    C    5  px     Ryd( 4p)     0.00027       2.16879
   133    C    5  py     Val( 2p)     1.09215      -0.10300
   134    C    5  py     Ryd( 3p)     0.00336       0.99375
   135    C    5  py     Ryd( 4p)     0.00021       1.81408
   136    C    5  pz     Val( 2p)     1.04567      -0.11430
   137    C    5  pz     Ryd( 3p)     0.00250       0.86442
[...]
 0571665,-0.00735758,-0.00342503,-0.00141865,-0.00158112,0.00177211,-0.
 00082466,-0.00047415,0.00065613,0.00071075,-0.00039854,-0.00089566,0.0
 0066144,-0.00063018,-0.00007437,0.00038839,-0.00053362,0.00089591,0.00
 150713,-0.00093674,0.00008597,0.00013325,-0.00000256,-0.04397309,0.033
 40070,0.02301165,0.00324694,0.00021057,0.00430190,0.00899236,-0.005494
 73,-0.00536496,0.00016849,0.00009076,-0.00012007,0.00013751,0.00007695
 ,-0.00009578,0.00013348,0.00000826,-0.00002161,-0.10203408,0.00881071,
 0.05335952,0.16290701,-0.00010376,-0.00004203,0.00000117,0.00004800,0.
 00001794,-0.00000551,0.00003268,0.00003375,0.00005055,0.00006896,0.000
 01074,-0.00001533,0.00000782,0.00001288,-0.00002138,0.00006464,0.00005
 025,-0.00002761,0.00001902,-0.00000999,-0.00001592,0.00002132,-0.00000
 899,0.00000813,-0.00007281,-0.00006049,0.00002185,-0.00002657,-0.00003
 047,-0.00002855,0.00083378,0.00153632,-0.00012114,-0.00154230,0.002441
 13,0.01515764,0.00011667,-0.00037877,0.00209014,-0.00056160,0.00056438
 ,-0.00060382,-0.00052129,-0.00049004,0.00055882,0.00104608,-0.00087740
 ,-0.00010859,-0.00000581,0.00016158,-0.00004347,0.00035818,-0.00028949
 ,-0.00005061,-0.00001070,0.00001914,-0.00002505,0.03830534,-0.01201884
 ,-0.01487683,-0.00087699,0.00614544,-0.00146986,0.00447260,-0.02073808
 ,-0.04135717,0.00001164,-0.00034986,0.00018472,0.00003129,-0.00007129,
 0.00034553,-0.00009987,-0.00011892,0.00019574,0.00720969,-0.07266366,-
 0.00811136,-0.02454946,0.09939209,0.00053760,0.00027772,-0.00024401,-0
 .00053166,0.00004040,-0.00048081,0.00001548,-0.00006333,0.00010320,-0.
 00019178,-0.00002597,0.00000403,-0.00000685,-0.00000687,0.00013529,-0.
 00027220,-0.00012366,0.00017614,-0.00013110,-0.00000339,0.00003031,-0.
 00005233,0.00000283,-0.00000249,-0.00009065,0.00010790,-0.00010886,0.0
 0010108,0.00001329,0.00014044,-0.00777079,0.00036567,-0.00325944,0.022
 35914,-0.00242517,-0.02727482,-0.00152430,0.00347677,-0.00393137,0.000
 38012,-0.00029957,0.00099813,0.00000909,0.00041609,-0.00093600,0.00050
 310,0.00217622,-0.00025058,0.00002284,-0.00085069,-0.00003689,-0.00139
 242,-0.00027607,-0.00203424,-0.00002561,-0.00007708,-0.00000761,0.0036
 5986,-0.00117622,0.00629996,0.00858333,-0.00454741,-0.00089737,0.00516
 306,-0.02193821,-0.02300112,-0.00028917,0.00148116,-0.00025369,-0.0001
 9400,0.00033208,-0.00099197,0.00023716,0.00048767,-0.00037604,0.055411
 43,-0.01043832,-0.18721598,-0.09546955,0.03066492,0.24355037,0.0003359
 2,0.00059849,-0.00041047,-0.00016261,0.00003893,-0.00000192,-0.0000099
 4,0.00001611,-0.00007460,-0.00014313,-0.00000527,0.00001409,-0.0000193
 7,-0.00002080,0.00000441,-0.00027916,-0.00007993,0.00016308,-0.0000437
 9,-0.00001945,0.00002939,-0.00006127,-0.00000478,-0.00001814,0.0000882
 8,-0.00006499,-0.00011152,0.00007461,0.00001144,0.00005758,-0.00399043
 ,0.00052749,-0.00137566,-0.01949273,-0.02424878,-0.00804103,0.00051384
 ,0.00319491,-0.00580565,-0.00096409,0.00126615,0.00088874,-0.00111661,
 -0.00013366,-0.00028479,0.00103235,0.00065246,0.00036331,-0.00037772,0
 .00026444,-0.00183210,0.00056272,-0.00048571,-0.00011637,0.00008675,-0
 .00006815,-0.00006838,0.00985606,0.01080000,-0.00353705,0.00965747,0.0
 0716510,0.00813357,0.00313341,-0.00874586,0.00061032,0.00022679,0.0008
 6866,-0.00022518,0.00023608,0.00036223,-0.00061485,0.00039812,0.000308
 87,-0.00015042,-0.13611948,-0.06675575,-0.03147027,-0.02965695,-0.0244
 7593,0.01142306,0.16737153,-0.00001245,0.00026433,-0.00026097,0.000022
 87,0.00004374,0.00005587,0.00001346,0.00003038,-0.00000787,0.00001896,
 0.00000852,-0.00000980,-0.00001407,-0.00002386,-0.00004406,-0.00004982
 ,0.00004330,0.00004971,0.00000598,-0.00001884,-0.00000175,-0.00000695,
 -0.00001209,-0.00000023,0.00001516,-0.00007683,-0.00002800,-0.00000546
 ,-0.00000862,-0.00001499,-0.00093736,0.00015476,0.00244314,0.00345934,
 -0.00501254,0.00622246,-0.00192252,0.00237718,-0.00231418,-0.00032818,
 -0.00122149,0.00126198,0.00101190,0.00026253,-0.00060749,-0.00017443,0
 .00177078,-0.00049205,0.00085967,-0.00031379,-0.00122686,0.00052335,-0
 .00019276,0.00005150,0.00007794,-0.00003609,-0.00014129,-0.00892195,-0
 .06591538,0.01155023,-0.00847236,-0.02098329,-0.02682619,-0.00432918,-
 0.00054613,-0.00165180,0.00016526,0.00027924,0.00006708,0.00019439,0.0
 0016585,0.00007759,0.00013257,0.00003942,0.00022885,-0.06331970,-0.142
 76720,-0.02723869,-0.01774090,-0.00261830,0.00412049,0.10047636,0.2347
 0060,0.00024102,0.00040787,-0.00025337,-0.00022071,0.00002909,-0.00015
 407,-0.00000544,-0.00002367,-0.00000235,-0.00012008,-0.00000641,0.0000
 1050,-0.00000998,-0.00001023,0.00003989,-0.00020803,-0.00007501,0.0001
 3386,-0.00005606,-0.00000772,0.00002174,-0.00004060,-0.00000163,-0.000
 00818,0.00001701,0.00000201,-0.00005608,0.00005920,0.00000520,0.000058
 58,-0.00183613,0.00186941,-0.00344969,-0.01751936,-0.01415114,0.000255
 58,0.00039324,0.00264540,-0.00402124,-0.00110620,0.00069029,0.00023426
 ,-0.00118282,-0.00015674,0.00005513,0.00038528,-0.00085731,0.00047380,
 -0.00176419,-0.00023025,-0.00104933,-0.00015887,-0.00030380,-0.0002739
 0,-0.00004509,-0.00000357,0.00004774,0.00095576,0.02517537,0.00640406,
 -0.00812586,-0.03584699,-0.02326912,-0.00037496,-0.00473093,0.00593794
 ,-0.00004196,0.00062162,-0.00008926,-0.00001637,0.00023471,-0.00041790
 ,0.00016252,0.00030195,-0.00015819,-0.03160837,-0.02802088,-0.08636810
 ,0.03089007,0.01840213,-0.00168982,0.03150309,0.03522779,0.10691465,-0
 .00013745,-0.00031122,0.00042144,-0.00001281,-0.00002849,0.00013242,0.
 00011101,0.00001978,0.00001383,0.00011049,0.00001642,-0.00007283,-0.00
 017307,0.00019125,-0.00039060,-0.00003868,0.00032651,0.00061517,0.0000
 6129,0.00000016,-0.00007143,-0.00002247,-0.00007919,0.00004443,-0.0000
 5589,-0.00000120,0.00002333,-0.00030067,-0.00048322,-0.00035502,0.0152
 6717,0.00334597,-0.00345567,-0.00013649,0.00590267,-0.00566239,-0.0041
 1464,0.00226644,-0.00223546,-0.00687318,-0.00169435,0.00188754,-0.0027
 3012,-0.01699940,0.01630611,-0.07658630,-0.02038470,0.01997484,-0.0017
 5635,0.00401357,-0.00388243,-0.00048936,0.00005429,-0.00006337,-0.0050
 5430,-0.00135996,0.00140891,-0.00118297,0.00007486,-0.00005909,-0.0034
 0191,0.00097491,0.00177979,-0.00126279,0.00163670,-0.00053581,-0.11965
 492,0.06464344,0.01941186,-0.12167295,-0.01617688,-0.06549679,-0.09327
 845,-0.03764040,0.03702956,0.01153385,-0.00084747,0.00069755,-0.001290
 51,0.00061202,-0.00157546,-0.00343443,-0.00171678,-0.00100276,0.704798
 99,-0.00118296,0.00038599,-0.00029056,0.00086001,-0.00031374,0.0001011
 4,0.00008793,-0.00001196,0.00013274,0.00057732,0.00001448,-0.00003024,
 0.00012236,-0.00013606,-0.00029878,0.00051167,-0.00004646,-0.00015855,
 0.00015351,0.00009034,-0.00009207,0.00017262,0.00009151,0.00008487,-0.
 00021223,0.00013586,0.00029411,-0.00041520,0.00019571,-0.00016846,-0.0
 0304604,-0.01138273,0.01044163,0.00281150,0.00118740,0.00276823,0.0026
 4398,0.00101499,-0.00143651,-0.00015284,0.00476584,-0.00009478,-0.0111
 0921,-0.00116230,0.00075201,-0.01931732,-0.09347429,0.04225017,0.00067
 318,-0.00055115,0.00102199,0.00008159,-0.00030890,0.00006822,0.0022057
 1,0.00076619,-0.00048486,-0.00108198,0.00075146,-0.00140541,-0.0010709
 8,0.00087957,-0.00127296,-0.00039823,0.00202048,-0.00112741,0.06311299
 ,-0.16555869,-0.02132451,-0.01824136,-0.07699745,-0.01859349,-0.037855
 01,-0.13788606,0.06497290,0.00513782,-0.00258831,0.00850806,-0.0002613
 9,0.00045589,-0.00266102,-0.00231915,-0.00095070,-0.00199663,0.0018205
 4,0.69765493,0.00139365,-0.00026369,0.00037817,-0.00084419,0.00010878,
 -0.00017797,-0.00011996,-0.00003690,-0.00036037,-0.00050298,-0.0000350
 4,0.00010456,0.00002170,0.00008844,-0.00007428,-0.00093624,-0.00037576
 ,0.00101123,-0.00012901,-0.00001786,0.00006038,-0.00029696,-0.00002684
 ,-0.00003610,0.00017304,0.00005845,-0.00043048,0.00000843,-0.00008544,
 0.00031937,0.00258786,0.01059153,-0.01104681,-0.00292108,0.00250949,0.
 00147979,-0.00241699,-0.00112745,0.00123323,0.00052588,0.00000757,0.00
 463727,0.01036531,0.00028804,-0.00175369,0.01944409,0.04228902,-0.0909
 0675,-0.00063073,0.00103264,-0.00040661,-0.00006996,-0.00004392,-0.000
 38719,-0.00185431,-0.00021630,0.00072474,0.00104905,-0.00141946,0.0006
 5299,0.00228380,-0.00197842,-0.00107899,0.00022979,-0.00264632,0.00033
 792,0.02131534,-0.02360176,-0.07949550,-0.06383126,-0.01630133,-0.1632
 4820,0.03718886,0.06495318,-0.13481224,-0.00501219,0.00859938,-0.00204
 698,0.00041234,-0.00120320,0.00192387,0.00101799,-0.00132001,0.0007721
 9,-0.00378206,-0.01648434,0.69583330,0.00043779,-0.00048029,0.00032056
 ,-0.00026587,0.00001020,-0.00008854,-0.00001992,0.00001881,0.00001641,
 -0.00011082,-0.00001706,0.00001177,0.00001191,-0.00002466,0.00007163,-
 0.00010565,-0.00005842,-0.00001679,-0.00004834,-0.00000276,0.00002570,
 -0.00003719,0.00001422,-0.00001672,0.00005048,0.00000111,-0.00005277,0
 .00008807,0.00009180,0.00008443,-0.00345505,-0.00080161,0.00093611,0.0
 0101967,-0.00093714,-0.00036190,-0.00057757,-0.00005827,0.00051681,-0.
 00079487,-0.00101261,-0.00087694,0.00162288,-0.00283343,0.00504783,-0.
 01670910,0.01871245,0.00989930,0.00051951,-0.00018692,0.00170976,0.000
 10970,0.00009072,0.00007828,0.00057475,0.00055345,-0.00007271,0.000419
 63,-0.00017529,-0.00000504,0.00133183,-0.00056095,-0.00082612,0.000417
 56,-0.00070507,0.00012103,0.00110829,0.00791669,0.00051792,-0.04365479
 ,0.02048972,-0.00396066,0.00700579,0.00730687,0.00118514,-0.00376691,0
 .00137489,0.00011737,0.00041190,-0.00027272,0.00042983,0.00096566,0.00
 016966,0.00027297,-0.14243670,0.05915458,0.04599507,0.18653305,-0.0000
 0236,0.00016894,-0.00019618,-0.00000184,0.00005548,0.00002216,0.000005
 94,-0.00001874,-0.00004590,-0.00004336,0.00000152,-0.00000334,-0.00001
 711,0.00002370,0.00000913,-0.00004204,0.00002864,0.00006193,-0.0000007
 4,-0.00001126,0.00000347,-0.00001103,-0.00001723,-0.00000441,0.0000139
 9,-0.00000747,-0.00002673,0.00000976,-0.00006326,-0.00001041,0.0007432
 4,0.00018237,0.00249015,-0.00005422,0.00164179,-0.00056843,-0.00128692
 ,0.00006135,-0.00030208,0.00062963,-0.00134142,0.00101298,0.00132584,0
 .00212621,-0.00167038,-0.00461924,-0.00194913,0.00864659,-0.00096797,-
 0.00052546,-0.00071757,-0.00007946,-0.00003649,-0.00011264,-0.00036777
 ,-0.00017969,0.00014437,-0.00001127,-0.00001661,0.00025617,-0.00047386
 ,0.00015368,0.00069738,-0.00012114,0.00011298,0.00012818,0.00416626,0.
 00170162,-0.00252483,0.01142637,0.00404939,-0.00027159,0.02407000,-0.0
 6353490,0.00869820,0.00088176,-0.00039005,-0.00166295,-0.00012831,0.00
 007962,0.00020394,0.00001363,0.00016881,0.00023530,0.05591559,-0.12108
 066,-0.03234996,-0.09915979,0.19953171,-0.00044821,0.00045515,-0.00025
 826,0.00029864,-0.00003877,0.00010737,0.00002232,-0.00001124,0.0000345
 8,0.00014488,0.00001839,-0.00001503,0.00000819,-0.00001833,-0.00001880
 ,0.00020211,0.00007687,-0.00019576,0.00004813,0.00000621,-0.00002144,0
 .00006855,0.00000024,0.00001380,-0.00005737,-0.00000453,0.00008192,-0.
 00004646,-0.00001958,-0.00006907,0.00146129,0.00230239,-0.00402410,-0.
 00033504,-0.00076380,0.00061806,0.00134268,0.00006450,-0.00028277,0.00
 115999,0.00112129,0.00018174,-0.00201071,0.00304667,-0.00487566,0.0232
 6379,-0.01479368,-0.00566398,0.00148378,0.00011424,-0.00174525,0.00003
 406,-0.00001198,0.00002498,0.00004624,-0.00038933,-0.00029891,-0.00032
 910,0.00030688,-0.00012413,-0.00089996,0.00059076,0.00045566,-0.000168
 76,0.00076909,-0.00011344,0.00210124,-0.00619600,0.00572080,-0.0255039
 0,0.00880874,0.00560001,-0.00594736,0.02494352,0.00667291,0.00223616,-
 0.00208169,0.00054297,-0.00018973,0.00028441,-0.00050632,-0.00056057,0
 .00014576,-0.00028178,0.04632613,-0.03377426,-0.10180851,-0.05146546,0
 .04794525,0.12335194,0.00047247,-0.00027095,0.00062074,-0.00038770,-0.
 00001119,-0.00010319,-0.00003101,0.00002012,0.00004398,-0.00010020,-0.
 00000792,0.00001611,0.00001625,-0.00002176,0.00007578,-0.00008193,-0.0
 0006225,-0.00005059,-0.00005911,-0.00001034,0.00002800,-0.00003262,0.0
 0000673,-0.00001719,0.00004489,-0.00002593,-0.00006180,0.00006529,0.00
 005719,0.00009761,-0.00360836,-0.00089303,0.00073804,0.00097244,0.0002
 2265,0.00094234,-0.00054060,-0.00042250,0.00012103,-0.00078816,0.00084
 032,0.00094080,0.00158376,-0.00546497,0.00262720,-0.01740121,-0.008766
 36,-0.01900465,0.00049956,-0.00174540,0.00017249,0.00011340,-0.0000935
 2,-0.00011225,0.00056602,0.00008761,-0.00058345,0.00042932,-0.00000627
 ,0.00017172,0.00098008,-0.00028123,-0.00019575,0.00041408,-0.00045606,
 0.00025361,-0.04358770,0.00545402,-0.01931217,0.00083265,-0.00022643,-
 0.00798813,0.00653411,-0.00070935,-0.00812861,-0.00385974,-0.00002064,
 -0.00134018,0.00043876,-0.00015743,0.00069851,0.00137138,0.00080909,0.
 00058322,-0.14588325,-0.04357862,-0.06057522,0.00938891,0.00818914,0.0
 0768627,0.19167379,0.00046475,-0.00020905,0.00055992,-0.00040469,0.000
 02993,-0.00008840,-0.00003210,0.00000449,0.00001418,-0.00013755,-0.000
 00552,0.00001200,-0.00002102,0.00002046,0.00006010,-0.00012891,-0.0000
 2602,0.00004740,-0.00005790,-0.00001825,0.00002588,-0.00004881,-0.0000
 1207,-0.00001940,0.00004981,-0.00003004,-0.00007829,0.00007053,-0.0000
 1845,0.00005968,-0.00145964,-0.00421814,0.00213545,0.00024111,0.000570
 97,-0.00083470,-0.00133511,-0.00017145,0.00011650,-0.00113194,0.000091
 88,0.00109698,0.00199401,-0.00502125,0.00259973,-0.02330219,-0.0047589
 7,-0.01410396,-0.00157708,-0.00161278,0.00010751,-0.00003904,0.0000083
 9,-0.00002345,-0.00010948,-0.00029706,-0.00038056,0.00032493,-0.000146
 76,0.00029548,0.00054676,-0.00029696,0.00012590,0.00017546,-0.00051887
 ,0.00025583,0.02683434,0.00473815,0.00870317,-0.00197479,0.00603165,-0
 .00582312,0.00736923,0.00523135,0.02746323,-0.00217281,0.00069801,-0.0
 0198944,0.00016960,-0.00014638,0.00074379,0.00087429,0.00039420,0.0005
 7918,-0.04407797,-0.09801459,-0.03098917,-0.00862277,-0.02091137,-0.03
 289570,0.04755065,0.11862542,-0.00002711,-0.00017667,0.00018557,-0.000
 01478,-0.00001930,-0.00004874,-0.00000564,0.00003391,0.00007348,0.0000
 3623,0.00000074,0.00000254,0.00001617,-0.00001221,0.00002454,0.0000759
 6,0.00001228,-0.00012691,-0.00000641,-0.00000149,0.00000070,0.00002518
 ,0.00000561,0.00000090,-0.00000543,-0.00003190,0.00004457,0.00001067,0
 .00002328,0.00000913,-0.00069835,0.00249874,0.00027296,0.00006005,-0.0
 0060326,0.00159249,0.00126274,-0.00034286,0.00005797,-0.00065539,0.001
 03530,-0.00132433,-0.00126279,-0.00178550,0.00214001,0.00423166,0.0085
 8476,-0.00184502,0.00090830,-0.00078618,-0.00052337,0.00007877,-0.0000
 9069,-0.00003208,0.00035507,0.00013074,-0.00018656,0.00001875,0.000252
 80,-0.00000552,-0.00000041,0.00022602,0.00017400,0.00013354,0.00019515
 ,0.00008512,-0.00962219,-0.00013358,0.00491431,-0.00428140,-0.00231286
 ,0.00163598,-0.02497405,0.01166774,-0.06189124,-0.00093185,-0.00162341
 ,-0.00044233,0.00013016,0.00012003,0.00011472,0.00049050,0.00068658,0.
 00017598,-0.05737419,-0.02968563,-0.12137532,-0.00962308,-0.03008575,-
 0.02310430,0.10164804,0.04222150,0.19939540,0.00070266,0.00015444,-0.0
 0021723,-0.00011374,-0.00016930,-0.00358126,-0.01337046,-0.00184130,0.
 00451036,-0.34037621,-0.02649107,0.02786400,-0.00781761,-0.00069204,-0
 .00136067,0.00109923,-0.00075586,0.00235770,0.00071995,0.00038355,-0.0
 0014056,0.00063241,0.00031411,0.00027333,-0.00071907,-0.00007433,0.000
 28141,-0.00046347,-0.00003443,-0.00014651,-0.00001987,-0.00001959,0.00
 001813,0.00002881,0.00001611,0.00000825,-0.00003988,0.00002530,-0.0000
 0899,0.00000216,0.00006270,0.00003532,0.00001518,-0.00001044,0.0000034
 5,-0.00002125,-0.00000181,-0.00002143,0.00000157,-0.00000128,-0.000000
 68,0.00002402,-0.00003981,-0.00000244,0.00001315,0.00003334,-0.0000053
 4,-0.00002627,0.00002221,-0.00001632,-0.00004116,0.00002615,0.00000836
 ,-0.00001032,0.00003927,-0.00000880,-0.00000311,-0.00003549,0.00001111
 ,-0.00001123,-0.00001810,0.00002296,-0.00001726,-0.00002405,0.00002066
 ,0.00013772,-0.00010250,0.00005796,-0.00002158,0.00001750,-0.00001683,
 -0.00003928,-0.00000385,-0.00001956,0.00009786,0.00011521,-0.00008906,
 -0.00003458,-0.00000269,0.00002818,-0.00003558,-0.00003168,0.00000128,
 0.35970722,0.00012758,-0.00086474,-0.00014291,-0.00023192,0.00735711,0
 .00127417,0.00214816,0.00367548,-0.00017734,-0.02649894,-0.04137986,0.
 00502995,-0.00469458,0.00312652,0.00003431,-0.00066177,0.00725743,0.00
 185495,0.00026009,-0.00390901,-0.00056282,0.00044682,-0.00389818,-0.00
 054527,0.00009000,0.00003459,-0.00001715,-0.00020505,0.00000996,-0.000
 02339,-0.00003498,0.00016981,-0.00016526,-0.00021003,-0.00012767,0.000
 11336,0.00028662,0.00001483,-0.00000340,0.00005811,-0.00090634,-0.0002
 2579,-0.00028080,-0.00004056,0.00005502,0.00024935,-0.00008743,0.00006
 337,-0.00000032,0.00001454,0.00001186,0.00001141,0.00000145,0.00004074
 ,-0.00000049,0.00000755,0.00004198,-0.00000435,-0.00000339,-0.00000147
 ,-0.00000107,-0.00000512,-0.00000398,-0.00001433,-0.00002802,0.0000006
 2,0.00001830,-0.00003178,-0.00000104,0.00000064,-0.00001088,0.00000598
 ,0.00000142,-0.00000681,0.00000136,0.00002731,0.00003786,0.00000678,-0
 .00000089,-0.00000815,0.00000203,-0.00001138,-0.00000571,-0.00000444,-
 0.00001391,0.00005343,-0.00000335,0.00000460,-0.00000404,-0.00000146,-
 0.00000535,-0.00001093,-0.00000392,0.02913973,0.02956805,-0.00024119,0
 .00012131,-0.00156373,-0.00313629,0.00114783,-0.00365206,-0.02608375,-
 0.00242002,0.00731635,0.02785736,0.00509747,-0.06254855,0.02922095,0.0
 0242575,0.00231472,0.00194121,0.00166786,-0.00476651,0.00065503,-0.000
 55256,0.00083402,-0.00051383,-0.00065028,0.00091050,-0.00129152,-0.000
 10900,0.00016811,0.00142082,0.00013020,-0.00006310,0.00000509,-0.00002
 140,0.00000974,0.00003887,-0.00002536,0.00001274,-0.00000327,0.0000697
 3,-0.00001794,0.00003101,-0.00018129,0.00015332,-0.00001076,0.00007300
 ,-0.00001897,-0.00003119,-0.00003015,0.00002306,0.00000057,-0.00000200
 ,0.00000593,0.00002806,-0.00003867,0.00001579,-0.00002021,-0.00005031,
 0.00002107,-0.00000536,0.00000146,0.00000269,0.00000128,-0.00000358,0.
 00000527,-0.00000630,-0.00000763,0.00000587,0.00000898,0.00000129,0.00
 000225,0.00002007,0.00000630,0.00001552,0.00000901,0.00000747,-0.00000
 251,0.00002676,0.00001408,-0.00004654,-0.00001341,-0.00000037,0.000022
 94,-0.00000014,-0.00000279,0.00000647,-0.00005755,-0.00001563,-0.00002
 303,0.00000879,-0.00000204,0.00000076,0.00000767,0.00000280,0.00000532
 ,-0.02986678,-0.00665350,0.06085052\\0.00000177,0.00000109,-0.00000105
 ,-0.00000300,-0.00000083,0.00000022,-0.00000140,-0.00000025,-0.0000005
 1,-0.00000306,-0.00000014,-0.00000051,-0.00000131,-0.00000037,0.000000
 87,-0.00000514,0.00000119,-0.00000262,0.00000041,0.00000093,-0.0000011
 6,-0.00000068,-0.00000111,0.00000158,-0.00000011,0.00000242,0.00000150
 ,0.00000045,-0.00000107,0.00000016,-0.00000047,0.00001652,-0.00000327,
 -0.00001615,0.00014647,0.00013465,-0.00002596,0.00001241,-0.00002660,-
 0.00001198,-0.00000195,-0.00000014,0.00001112,-0.00001097,0.00001285,-
 0.00015405,-0.00002201,-0.00023168,-0.00000901,-0.00001257,0.00000236,
 -0.00000385,0.00000851,-0.00000629,-0.00000271,0.00000590,-0.00000597,
 0.00002742,0.00012633,0.00023311,-0.00000535,0.00002356,0.00001746,-0.
 00001191,-0.00001625,-0.00000515,0.00001728,-0.00002850,-0.00006300,-0
 .00000456,0.00005605,0.00002341,-0.00012677,0.00014926,-0.00041828,0.0
 0006816,-0.00026309,-0.00041518,0.00000792,0.00001583,0.00005717,-0.00
 000621,-0.00004774,0.00001649,0.00016700,-0.00012263,0.00066453,0.0000
 5784,-0.00010347,-0.00007283,0.00003493,0.00006670,0.00008755,-0.00000
 062,-0.00000023,0.00000030\\\@
 The archive entry for this job was punched.


 THEORY:  SUPPOSITION WHICH HAS SCIENTIFIC BASIS,
          BUT NOT EXPERIMENTALLY PROVEN.
 FACT:    A THEORY WHICH HAS BEEN PROVEN BY ENOUGH 
          MONEY TO PAY FOR THE EXPERIMENTS.

                          --  THE WIZARD OF ID
 Job cpu time:       2 days 14 hours 42 minutes  4.7 seconds.
 Elapsed time:       0 days  1 hours 59 minutes 35.8 seconds.
 File lengths (MBytes):  RWF=   1725 Int=      0 D2E=      0 Chk=     52 Scr=      1
 Normal termination of Gaussian 16 at Wed Nov  1 01:06:32 2023.
