 Entering Gaussian System, Link 0=g16
 Input=ph35cf3_1_1_m062x.com
 Output=ph35cf3_1_1_m062x.log
 Initial command:
 /arc/software/Gaussian/g16.c01/l1.exe "/tmp/Gau-52422.inp" -scrdir="/tmp/"
 Entering Link 1 = /arc/software/Gaussian/g16.c01/l1.exe PID=     52423.
  
 Copyright (c) 1988-2019, Gaussian, Inc.  All Rights Reserved.
  
 This is part of the Gaussian(R) 16 program.  It is based on
 the Gaussian(R) 09 system (copyright 2009, Gaussian, Inc.),
 the Gaussian(R) 03 system (copyright 2003, Gaussian, Inc.),
 the Gaussian(R) 98 system (copyright 1998, Gaussian, Inc.),
 the Gaussian(R) 94 system (copyright 1995, Gaussian, Inc.),
 the Gaussian 92(TM) system (copyright 1992, Gaussian, Inc.),
 the Gaussian 90(TM) system (copyright 1990, Gaussian, Inc.),
 the Gaussian 88(TM) system (copyright 1988, Gaussian, Inc.),
 the Gaussian 86(TM) system (copyright 1986, Carnegie Mellon
 University), and the Gaussian 82(TM) system (copyright 1983,
 Carnegie Mellon University). Gaussian is a federally registered
 trademark of Gaussian, Inc.
  
 This software contains proprietary and confidential information,
 including trade secrets, belonging to Gaussian, Inc.
  
 This software is provided under written license and may be
 used, copied, transmitted, or stored only in accord with that
 written license.
  
 The following legend is applicable only to US Government
 contracts under FAR:
  
                    RESTRICTED RIGHTS LEGEND
  
 Use, reproduction and disclosure by the US Government is
 subject to restrictions as set forth in subparagraphs (a)
 and (c) of the Commercial Computer Software - Restricted
 Rights clause in FAR 52.227-19.
  
 Gaussian, Inc.
 340 Quinnipiac St., Bldg. 40, Wallingford CT 06492
  
  
 ---------------------------------------------------------------
 Warning -- This program may not be used in any manner that
 competes with the business of Gaussian, Inc. or will provide
 assistance to any competitor of Gaussian, Inc.  The licensee
 of this program is prohibited from giving any competitor of
 Gaussian, Inc. access to this program.  By using this program,
 the user acknowledges that Gaussian, Inc. is engaged in the
 business of creating and licensing software in the field of
 computational chemistry and represents and warrants to the
 licensee that it is not a competitor of Gaussian, Inc. and that
 it will not use this program in any manner prohibited above.
 ---------------------------------------------------------------
  

 Cite this work as:
 Gaussian 16, Revision C.01,
 M. J. Frisch, G. W. Trucks, H. B. Schlegel, G. E. Scuseria, 
 M. A. Robb, J. R. Cheeseman, G. Scalmani, V. Barone, 
 G. A. Petersson, H. Nakatsuji, X. Li, M. Caricato, A. V. Marenich, 
 J. Bloino, B. G. Janesko, R. Gomperts, B. Mennucci, H. P. Hratchian, 
 J. V. Ortiz, A. F. Izmaylov, J. L. Sonnenberg, D. Williams-Young, 
 F. Ding, F. Lipparini, F. Egidi, J. Goings, B. Peng, A. Petrone, 
 T. Henderson, D. Ranasinghe, V. G. Zakrzewski, J. Gao, N. Rega, 
 G. Zheng, W. Liang, M. Hada, M. Ehara, K. Toyota, R. Fukuda, 
 J. Hasegawa, M. Ishida, T. Nakajima, Y. Honda, O. Kitao, H. Nakai, 
 T. Vreven, K. Throssell, J. A. Montgomery, Jr., J. E. Peralta, 
 F. Ogliaro, M. J. Bearpark, J. J. Heyd, E. N. Brothers, K. N. Kudin, 
 V. N. Staroverov, T. A. Keith, R. Kobayashi, J. Normand, 
 K. Raghavachari, A. P. Rendell, J. C. Burant, S. S. Iyengar, 
 J. Tomasi, M. Cossi, J. M. Millam, M. Klene, C. Adamo, R. Cammi, 
 J. W. Ochterski, R. L. Martin, K. Morokuma, O. Farkas, 
 J. B. Foresman, and D. J. Fox, Gaussian, Inc., Wallingford CT, 2019.
 
 ******************************************
 Gaussian 16:  ES64L-G16RevC.01  3-Jul-2019
                31-Oct-2023 
 ******************************************
 %nprocshared=32
 Will use up to   32 processors via shared memory.
 %mem=8000MB
 %chk=ph35cf3_1_1_m062x.chk
 -----------------------------------------
 # opt freq=noraman m062x def2tzvp pop=nbo
 -----------------------------------------
 1/18=20,19=15,26=3,38=1/1,3;
 2/9=110,12=2,17=6,18=5,40=1/2;
 3/5=44,7=101,11=2,25=1,30=1,71=1,74=-55/1,2,3;
 4//1;
 5/5=2,38=5/2;
 6/7=2,8=2,9=2,10=2,28=1,40=1/1,7;
 7//1,2,3,16;
 1/18=20,19=15,26=3/3(2);
 2/9=110/2;
 99//99;
 2/9=110/2;
 3/5=44,7=101,11=2,25=1,30=1,71=1,74=-55/1,2,3;
 4/5=5,16=3,69=1/1;
 5/5=2,38=5/2;
 7//1,2,3,16;
 1/18=20,19=15,26=3/3(-5);
 2/9=110/2;
 6/7=2,8=2,9=2,10=2,19=2,28=1,40=1/1,7;
 99/9=1/99;
 ------------
 Structure697
 ------------
 Symbolic Z-matrix:
 Charge =  0 Multiplicity = 1
 C                     1.5838    0.3351    0.0917 
 C                     2.1508    1.5738   -0.2383 
 C                     3.5291    1.7091   -0.3848 
 C                     4.3537    0.603    -0.2003 
 C                     3.81     -0.6356    0.1284 
 C                     2.431    -0.7668    0.2726 
 H                     1.5228    2.4382   -0.3986 
 H                     3.9559    2.6676   -0.6437 
 H                     5.4237    0.7064   -0.3132 
 H                     4.4548   -1.4904    0.2743 
 H                     2.0252   -1.7313    0.5419 
 C                    -2.6756   -0.0768    0.5408 
 C                    -2.0382    1.0757    1.0131 
 C                    -0.6518    1.197     0.8616 
 C                     0.107     0.1923    0.2474 
 C                    -0.5578   -0.9501   -0.2166 
 C                    -1.9429   -1.0969   -0.076 
 H                    -0.1548    2.0792    1.2409 
 H                     0.0081   -1.7296   -0.708 
 H                    -3.7472   -0.1805    0.6538 
 C                    -2.8402    2.1901    1.6856 
 F                    -2.8274    1.9951    3.0032 
 F                    -2.3076    3.3855    1.4265 
 F                    -4.1078    2.1992    1.2699 
 C                    -2.6405   -2.3563   -0.5903 
 F                    -2.9372   -2.1889   -1.878 
 F                    -1.8492   -3.4237   -0.4706 
 F                    -3.7697   -2.5971    0.078 
 

 GradGradGradGradGradGradGradGradGradGradGradGradGradGradGradGradGradGrad
 Berny optimization.
 Initialization pass.
                           ----------------------------
                           !    Initial Parameters    !
                           ! (Angstroms and Degrees)  !
 --------------------------                            --------------------------
 ! Name  Definition              Value          Derivative Info.                !
 --------------------------------------------------------------------------------
 ! R1    R(1,2)                  1.4017         estimate D2E/DX2                !
 ! R2    R(1,6)                  1.4017         estimate D2E/DX2                !
 ! R3    R(1,15)                 1.4918         estimate D2E/DX2                !
 ! R4    R(2,3)                  1.3927         estimate D2E/DX2                !
 ! R5    R(2,7)                  1.0804         estimate D2E/DX2                !
 ! R6    R(3,4)                  1.3919         estimate D2E/DX2                !
 ! R7    R(3,8)                  1.0807         estimate D2E/DX2                !
 ! R8    R(4,5)                  1.392          estimate D2E/DX2                !
 ! R9    R(4,9)                  1.0809         estimate D2E/DX2                !
 ! R10   R(5,6)                  1.3927         estimate D2E/DX2                !
 ! R11   R(5,10)                 1.0806         estimate D2E/DX2                !
 ! R12   R(6,11)                 1.0805         estimate D2E/DX2                !
 ! R13   R(12,13)                1.3991         estimate D2E/DX2                !
 ! R14   R(12,17)                1.3992         estimate D2E/DX2                !
 ! R15   R(12,20)                1.0825         estimate D2E/DX2                !
 ! R16   R(13,14)                1.3999         estimate D2E/DX2                !
 ! R17   R(13,21)                1.5288         estimate D2E/DX2                !
 ! R18   R(14,15)                1.4009         estimate D2E/DX2                !
 ! R19   R(14,18)                1.0813         estimate D2E/DX2                !
 ! R20   R(15,16)                1.4008         estimate D2E/DX2                !
 ! R21   R(16,17)                1.3999         estimate D2E/DX2                !
 ! R22   R(16,19)                1.0814         estimate D2E/DX2                !
 ! R23   R(17,25)                1.5288         estimate D2E/DX2                !
 ! R24   R(21,22)                1.332          estimate D2E/DX2                !
 ! R25   R(21,23)                1.3341         estimate D2E/DX2                !
 ! R26   R(21,24)                1.3341         estimate D2E/DX2                !
 ! R27   R(25,26)                1.332          estimate D2E/DX2                !
 ! R28   R(25,27)                1.3341         estimate D2E/DX2                !
 ! R29   R(25,28)                1.3341         estimate D2E/DX2                !
 ! A1    A(2,1,6)              118.7252         estimate D2E/DX2                !
 ! A2    A(2,1,15)             120.6367         estimate D2E/DX2                !
 ! A3    A(6,1,15)             120.6381         estimate D2E/DX2                !
 ! A4    A(1,2,3)              120.7278         estimate D2E/DX2                !
 ! A5    A(1,2,7)              120.4534         estimate D2E/DX2                !
 ! A6    A(3,2,7)              118.8121         estimate D2E/DX2                !
 ! A7    A(2,3,4)              119.6806         estimate D2E/DX2                !
 ! A8    A(2,3,8)              120.1475         estimate D2E/DX2                !
 ! A9    A(4,3,8)              120.1716         estimate D2E/DX2                !
 ! A10   A(3,4,5)              120.4625         estimate D2E/DX2                !
 ! A11   A(3,4,9)              119.7741         estimate D2E/DX2                !
 ! A12   A(5,4,9)              119.7634         estimate D2E/DX2                !
 ! A13   A(4,5,6)              119.6698         estimate D2E/DX2                !
 ! A14   A(4,5,10)             120.1761         estimate D2E/DX2                !
 ! A15   A(6,5,10)             120.1538         estimate D2E/DX2                !
 ! A16   A(1,6,5)              120.734          estimate D2E/DX2                !
 ! A17   A(1,6,11)             120.4582         estimate D2E/DX2                !
 ! A18   A(5,6,11)             118.8011         estimate D2E/DX2                !
 ! A19   A(13,12,17)           120.715          estimate D2E/DX2                !
 ! A20   A(13,12,20)           119.646          estimate D2E/DX2                !
 ! A21   A(17,12,20)           119.6389         estimate D2E/DX2                !
 ! A22   A(12,13,14)           119.0785         estimate D2E/DX2                !
 ! A23   A(12,13,21)           120.6592         estimate D2E/DX2                !
 ! A24   A(14,13,21)           120.2623         estimate D2E/DX2                !
 ! A25   A(13,14,15)           121.4488         estimate D2E/DX2                !
 ! A26   A(13,14,18)           119.2051         estimate D2E/DX2                !
 ! A27   A(15,14,18)           119.3394         estimate D2E/DX2                !
 ! A28   A(1,15,14)            120.8847         estimate D2E/DX2                !
 ! A29   A(1,15,16)            120.8828         estimate D2E/DX2                !
 ! A30   A(14,15,16)           118.2325         estimate D2E/DX2                !
 ! A31   A(15,16,17)           121.4528         estimate D2E/DX2                !
 ! A32   A(15,16,19)           119.3426         estimate D2E/DX2                !
 ! A33   A(17,16,19)           119.1978         estimate D2E/DX2                !
 ! A34   A(12,17,16)           119.0723         estimate D2E/DX2                !
 ! A35   A(12,17,25)           120.6583         estimate D2E/DX2                !
 ! A36   A(16,17,25)           120.2694         estimate D2E/DX2                !
 ! A37   A(13,21,22)           108.8666         estimate D2E/DX2                !
 ! A38   A(13,21,23)           110.9951         estimate D2E/DX2                !
 ! A39   A(13,21,24)           111.4909         estimate D2E/DX2                !
 ! A40   A(22,21,23)           108.6299         estimate D2E/DX2                !
 ! A41   A(22,21,24)           108.564          estimate D2E/DX2                !
 ! A42   A(23,21,24)           108.2225         estimate D2E/DX2                !
 ! A43   A(17,25,26)           108.8644         estimate D2E/DX2                !
 ! A44   A(17,25,27)           110.9937         estimate D2E/DX2                !
 ! A45   A(17,25,28)           111.4941         estimate D2E/DX2                !
 ! A46   A(26,25,27)           108.6273         estimate D2E/DX2                !
 ! A47   A(26,25,28)           108.5683         estimate D2E/DX2                !
 ! A48   A(27,25,28)           108.2213         estimate D2E/DX2                !
 ! D1    D(6,1,2,3)              0.0342         estimate D2E/DX2                !
 ! D2    D(6,1,2,7)            179.0829         estimate D2E/DX2                !
 ! D3    D(15,1,2,3)          -179.9664         estimate D2E/DX2                !
 ! D4    D(15,1,2,7)            -0.9176         estimate D2E/DX2                !
 ! D5    D(2,1,6,5)              0.032          estimate D2E/DX2                !
 ! D6    D(2,1,6,11)           179.0839         estimate D2E/DX2                !
 ! D7    D(15,1,6,5)          -179.9675         estimate D2E/DX2                !
 ! D8    D(15,1,6,11)           -0.9155         estimate D2E/DX2                !
 ! D9    D(2,1,15,14)          -39.0993         estimate D2E/DX2                !
 ! D10   D(2,1,15,16)          140.9062         estimate D2E/DX2                !
 ! D11   D(6,1,15,14)          140.9001         estimate D2E/DX2                !
 ! D12   D(6,1,15,16)          -39.0943         estimate D2E/DX2                !
 ! D13   D(1,2,3,4)             -0.0691         estimate D2E/DX2                !
 ! D14   D(1,2,3,8)            179.7289         estimate D2E/DX2                !
 ! D15   D(7,2,3,4)           -179.1332         estimate D2E/DX2                !
 ! D16   D(7,2,3,8)              0.6648         estimate D2E/DX2                !
 ! D17   D(2,3,4,5)              0.038          estimate D2E/DX2                !
 ! D18   D(2,3,4,9)           -179.973          estimate D2E/DX2                !
 ! D19   D(8,3,4,5)           -179.7599         estimate D2E/DX2                !
 ! D20   D(8,3,4,9)              0.2291         estimate D2E/DX2                !
 ! D21   D(3,4,5,6)              0.0273         estimate D2E/DX2                !
 ! D22   D(3,4,5,10)          -179.7649         estimate D2E/DX2                !
 ! D23   D(9,4,5,6)           -179.9617         estimate D2E/DX2                !
 ! D24   D(9,4,5,10)             0.2461         estimate D2E/DX2                !
 ! D25   D(4,5,6,1)             -0.0626         estimate D2E/DX2                !
 ! D26   D(4,5,6,11)          -179.13           estimate D2E/DX2                !
 ! D27   D(10,5,6,1)           179.7296         estimate D2E/DX2                !
 ! D28   D(10,5,6,11)            0.6622         estimate D2E/DX2                !
 ! D29   D(17,12,13,14)         -0.0411         estimate D2E/DX2                !
 ! D30   D(17,12,13,21)        179.9397         estimate D2E/DX2                !
 ! D31   D(20,12,13,14)        179.956          estimate D2E/DX2                !
 ! D32   D(20,12,13,21)         -0.0632         estimate D2E/DX2                !
 ! D33   D(13,12,17,16)         -0.0384         estimate D2E/DX2                !
 ! D34   D(13,12,17,25)        179.9364         estimate D2E/DX2                !
 ! D35   D(20,12,17,16)        179.9645         estimate D2E/DX2                !
 ! D36   D(20,12,17,25)         -0.0607         estimate D2E/DX2                !
 ! D37   D(12,13,14,15)          0.0852         estimate D2E/DX2                !
 ! D38   D(12,13,14,18)       -178.967          estimate D2E/DX2                !
 ! D39   D(21,13,14,15)       -179.8957         estimate D2E/DX2                !
 ! D40   D(21,13,14,18)          1.0522         estimate D2E/DX2                !
 ! D41   D(12,13,21,22)         93.7196         estimate D2E/DX2                !
 ! D42   D(12,13,21,23)       -146.7595         estimate D2E/DX2                !
 ! D43   D(12,13,21,24)        -26.0244         estimate D2E/DX2                !
 ! D44   D(14,13,21,22)        -86.2999         estimate D2E/DX2                !
 ! D45   D(14,13,21,23)         33.221          estimate D2E/DX2                !
 ! D46   D(14,13,21,24)        153.9562         estimate D2E/DX2                !
 ! D47   D(13,14,15,1)         179.9578         estimate D2E/DX2                !
 ! D48   D(13,14,15,16)         -0.0476         estimate D2E/DX2                !
 ! D49   D(18,14,15,1)          -0.9913         estimate D2E/DX2                !
 ! D50   D(18,14,15,16)        179.0033         estimate D2E/DX2                !
 ! D51   D(1,15,16,17)         179.9599         estimate D2E/DX2                !
 ! D52   D(1,15,16,19)          -0.9967         estimate D2E/DX2                !
 ! D53   D(14,15,16,17)         -0.0347         estimate D2E/DX2                !
 ! D54   D(14,15,16,19)        179.0087         estimate D2E/DX2                !
 ! D55   D(15,16,17,12)          0.0772         estimate D2E/DX2                !
 ! D56   D(15,16,17,25)       -179.8977         estimate D2E/DX2                !
 ! D57   D(19,16,17,12)       -178.9675         estimate D2E/DX2                !
 ! D58   D(19,16,17,25)          1.0576         estimate D2E/DX2                !
 ! D59   D(12,17,25,26)         93.7342         estimate D2E/DX2                !
 ! D60   D(12,17,25,27)       -146.7505         estimate D2E/DX2                !
 ! D61   D(12,17,25,28)        -26.0156         estimate D2E/DX2                !
 ! D62   D(16,17,25,26)        -86.2913         estimate D2E/DX2                !
 ! D63   D(16,17,25,27)         33.224          estimate D2E/DX2                !
 ! D64   D(16,17,25,28)        153.9589         estimate D2E/DX2                !
 --------------------------------------------------------------------------------
 Trust Radius=3.00D-01 FncErr=1.00D-07 GrdErr=1.00D-06 EigMax=2.50D+02 EigMin=1.00D-04
 Number of steps in this run=    151 maximum allowed number of steps=    168.
 GradGradGradGradGradGradGradGradGradGradGradGradGradGradGradGradGradGrad

                          Input orientation:                          
 ---------------------------------------------------------------------
 Center     Atomic      Atomic             Coordinates (Angstroms)
 Number     Number       Type             X           Y           Z
 ---------------------------------------------------------------------
      1          6           0        1.583800    0.335100    0.091700
      2          6           0        2.150800    1.573800   -0.238300
      3          6           0        3.529100    1.709100   -0.384800
      4          6           0        4.353700    0.603000   -0.200300
      5          6           0        3.810000   -0.635600    0.128400
      6          6           0        2.431000   -0.766800    0.272600
      7          1           0        1.522800    2.438200   -0.398600
      8          1           0        3.955900    2.667600   -0.643700
      9          1           0        5.423700    0.706400   -0.313200
     10          1           0        4.454800   -1.490400    0.274300
     11          1           0        2.025200   -1.731300    0.541900
     12          6           0       -2.675600   -0.076800    0.540800
     13          6           0       -2.038200    1.075700    1.013100
     14          6           0       -0.651800    1.197000    0.861600
     15          6           0        0.107000    0.192300    0.247400
     16          6           0       -0.557800   -0.950100   -0.216600
     17          6           0       -1.942900   -1.096900   -0.076000
     18          1           0       -0.154800    2.079200    1.240900
     19          1           0        0.008100   -1.729600   -0.708000
     20          1           0       -3.747200   -0.180500    0.653800
     21          6           0       -2.840200    2.190100    1.685600
     22          9           0       -2.827400    1.995100    3.003200
     23          9           0       -2.307600    3.385500    1.426500
     24          9           0       -4.107800    2.199200    1.269900
     25          6           0       -2.640500   -2.356300   -0.590300
     26          9           0       -2.937200   -2.188900   -1.878000
     27          9           0       -1.849200   -3.423700   -0.470600
     28          9           0       -3.769700   -2.597100    0.078000
 ---------------------------------------------------------------------
                    Distance matrix (angstroms):
                    1          2          3          4          5
     1  C    0.000000
     2  C    1.401701   0.000000
     3  C    2.428810   1.392652   0.000000
     4  C    2.798103   2.407626   1.391928   0.000000
     5  C    2.428903   2.787268   2.416588   1.392043   0.000000
     6  C    1.401662   2.412040   2.787127   2.407647   1.392712
     7  H    2.160358   1.080402   2.134717   3.379538   3.867462
     8  H    3.407085   2.149217   1.080699   2.148819   3.395373
     9  H    3.879000   3.386719   2.144771   1.080897   2.144762
    10  H    3.407115   3.867880   3.395311   2.148904   1.080619
    11  H    2.160445   3.398260   3.867407   3.379605   2.134725
    12  C    4.302771   5.160001   6.522613   7.100874   6.522679
    13  C    3.810033   4.400208   5.774959   6.523202   6.157328
    14  C    2.516650   3.034193   4.392685   5.151262   4.878900
    15  C    1.491835   2.514272   3.796199   4.289938   3.796286
    16  C    2.516593   3.702304   4.878769   5.151235   4.392677
    17  C    3.810034   4.890538   6.157254   6.523211   5.774984
    18  H    2.717586   2.785544   4.043636   4.958104   4.932285
    19  H    2.717598   3.965379   4.932196   4.958127   4.043618
    20  H    5.385291   6.217702   7.589059   8.183394   7.589100
    21  C    5.055029   5.384357   6.714603   7.604453   7.391523
    22  F    5.539956   5.955442   7.208705   7.985521   7.696761
    23  F    5.121487   5.092263   6.337049   7.400115   7.435008
    24  F    6.103879   6.468065   7.829462   8.735349   8.487088
    25  C    5.055044   6.206943   7.391459   7.604498   6.714632
    26  F    5.539832   6.537146   7.696563   7.985400   7.208543
    27  F    5.121547   6.405386   7.434992   7.400226   6.337101
    28  F    6.103929   7.249053   8.487050   8.735429   7.829551
                    6          7          8          9         10
     6  C    0.000000
     7  H    3.398141   0.000000
     8  H    3.867820   2.456150   0.000000
     9  H    3.386699   4.268893   2.471836   0.000000
    10  H    2.149271   4.948062   4.287259   2.471812   0.000000
    11  H    1.080489   4.303682   4.948088   4.268885   2.456135
    12  C    5.159980   4.983398   7.274034   8.181771   7.274056
    13  C    4.890490   4.065713   6.419374   7.587846   7.020665
    14  C    3.702308   2.803135   5.065520   6.207459   5.800380
    15  C    2.514256   2.732375   4.662103   5.370835   4.662142
    16  C    3.034113   3.980276   5.800315   6.207388   5.065478
    17  C    4.400169   4.961056   7.020654   7.587816   6.419355
    18  H    3.965310   2.373011   4.560240   5.951426   5.909718
    19  H    2.785499   4.445290   5.909706   5.951360   4.560183
    20  H    6.217654   5.978130   8.314621   9.264291   8.314605
    21  C    6.206881   4.841613   7.200043   8.630678   8.291856
    22  F    6.537204   5.540110   7.730802   8.985539   8.522091
    23  F    6.405264   4.347451   6.635702   8.365234   8.416176
    24  F    7.248977   5.877471   8.300875   9.776715   9.376699
    25  C    5.384349   6.352720   8.291858   8.630657   7.200042
    26  F    5.955251   6.594716   8.521967   8.985322   7.730586
    27  F    5.092306   6.762946   8.416239   8.365260   6.635732
    28  F    6.468118   7.320652   9.376717   9.776746   8.300947
                   11         12         13         14         15
    11  H    0.000000
    12  C    4.983462   0.000000
    13  C    4.961098   1.399143   0.000000
    14  C    3.980387   2.412726   1.399918   0.000000
    15  C    2.732482   2.810936   2.443067   1.400872   0.000000
    16  C    2.803121   2.412755   2.794210   2.404452   1.400833
    17  C    4.065720   1.399248   2.432162   2.794282   2.443095
    18  H    4.445325   3.390119   2.146183   1.081274   2.148482
    19  H    2.372961   3.390206   3.875466   3.385868   2.148551
    20  H    5.978135   1.082520   2.151236   3.394435   3.893456
    21  C    6.352759   2.544896   1.528839   2.540535   3.840002
    22  F    6.594830   3.221681   2.329942   3.155416   4.410808
    23  F    6.762937   3.592688   2.361917   2.801842   4.173379
    24  F    7.320690   2.786209   2.368848   3.621471   4.778880
    25  C    4.841617   2.544944   3.835659   4.323064   3.840034
    26  F    5.539921   3.221800   4.452446   4.918616   4.410736
    27  F    4.347453   3.592716   4.741486   4.955743   4.173452
    28  F    5.877557   2.786243   4.166769   4.972979   4.778938
                   16         17         18         19         20
    16  C    0.000000
    17  C    1.399936   0.000000
    18  H    3.385760   3.875453   0.000000
    19  H    1.081359   2.146191   4.281554   0.000000
    20  H    3.394430   2.151254   4.284422   4.284447   0.000000
    21  C    4.323028   3.835720   2.724230   5.404274   2.739891
    22  F    4.918577   4.452446   3.202431   5.973814   3.331508
    23  F    4.955704   4.741563   2.524958   6.006896   3.922483
    24  F    4.972954   4.166835   3.954927   6.023968   2.484468
    25  C    2.540608   1.528803   5.404226   2.724278   2.739831
    26  F    3.155379   2.329871   5.973773   3.202288   3.331634
    27  F    2.801951   2.361882   6.006840   2.525054   3.922375
    28  F    3.621560   2.368863   6.023921   3.955013   2.484353
                   21         22         23         24         25
    21  C    0.000000
    22  F    1.332013   0.000000
    23  F    1.334083   2.165499   0.000000
    24  F    1.334054   2.164581   2.161608   0.000000
    25  C    5.088158   5.646491   6.094799   5.134773   0.000000
    26  F    5.646618   6.429932   6.510764   5.525848   1.332000
    27  F    6.094754   6.510573   7.083384   6.304571   1.334101
    28  F    5.134747   5.525670   6.304577   4.953729   1.334055
                   26         27         28
    26  F    0.000000
    27  F    2.165468   0.000000
    28  F    2.164629   2.161608   0.000000
 Stoichiometry    C14H8F6
 Framework group  C1[X(C14H8F6)]
 Deg. of freedom    78
 Full point group                 C1      NOp   1
 Largest Abelian subgroup         C1      NOp   1
 Largest concise Abelian subgroup C1      NOp   1
                         Standard orientation:                         
 ---------------------------------------------------------------------
 Center     Atomic      Atomic             Coordinates (Angstroms)
 Number     Number       Type             X           Y           Z
 ---------------------------------------------------------------------
      1          6           0       -2.423239   -0.000015   -0.000018
      2          6           0       -3.137552   -0.969822   -0.716954
      3          6           0       -4.530202   -0.971177   -0.718816
      4          6           0       -5.221342   -0.000067    0.000025
      5          6           0       -4.530239    0.971233    0.718869
      6          6           0       -3.137529    0.969753    0.716917
      7          1           0       -2.615365   -1.721422   -1.291137
      8          1           0       -5.071482   -1.720705   -1.278399
      9          1           0       -6.302239    0.000035   -0.000015
     10          1           0       -5.071478    1.720702    1.278416
     11          1           0       -2.615377    1.721468    1.291145
     12          6           0        1.879532   -0.000023   -0.000037
     13          6           0        1.187524   -1.214817    0.054750
     14          6           0       -0.212326   -1.200999    0.055017
     15          6           0       -0.931404   -0.000025   -0.000038
     16          6           0       -0.212372    1.200935   -0.054996
     17          6           0        1.187495    1.214876   -0.054816
     18          1           0       -0.749181   -2.137709    0.114297
     19          1           0       -0.749235    2.137740   -0.114265
     20          1           0        2.962052    0.000035   -0.000001
     21          6           0        1.944949   -2.541557    0.113187
     22          9           0        2.088474   -2.899806    1.388066
     23          9           0        1.276235   -3.502305   -0.526784
     24          9           0        3.155510   -2.437906   -0.437720
     25          6           0        1.944947    2.541562   -0.113189
     26          9           0        2.088223    2.899957   -1.388042
     27          9           0        1.276302    3.502260    0.526969
     28          9           0        3.155572    2.437880    0.437573
 ---------------------------------------------------------------------
 Rotational constants (GHZ):           0.3544646           0.2355459           0.1519618
 Standard basis: def2TZVP (5D, 7F)
 There are   768 symmetry adapted cartesian basis functions of A   symmetry.
 There are   668 symmetry adapted basis functions of A   symmetry.
   668 basis functions,  1084 primitive gaussians,   768 cartesian basis functions
    73 alpha electrons       73 beta electrons
       nuclear repulsion energy      1539.4440764804 Hartrees.
 NAtoms=   28 NActive=   28 NUniq=   28 SFac= 1.00D+00 NAtFMM=   60 NAOKFM=F Big=F
 Integral buffers will be    131072 words long.
 Raffenetti 2 integral format.
 Two-electron integral symmetry is turned on.
 One-electron integrals computed using PRISM.
   1 Symmetry operations used in ECPInt.
 ECPInt:  NShTT=   31878 NPrTT=  101040 LenC2=   27037 LenP2D=   60529.
 LDataN:  DoStor=T MaxTD1= 6 Len=  172
 NBasis=   668 RedAO= T EigKep=  6.06D-06  NBF=   668
 NBsUse=   668 1.00D-06 EigRej= -1.00D+00 NBFU=   668
 ExpMin= 9.52D-02 ExpMax= 3.55D+04 ExpMxC= 1.21D+03 IAcc=3 IRadAn=         5 AccDes= 0.00D+00
 Harris functional with IExCor= 1009 and IRadAn=       5 diagonalized for initial guess.
 HarFok:  IExCor= 1009 AccDes= 0.00D+00 IRadAn=         5 IDoV= 1 UseB2=F ITyADJ=14
 ICtDFT=  3500011 ScaDFX=  1.000000  1.000000  1.000000  1.000000
 FoFCou: FMM=F IPFlag=           0 FMFlag=      100000 FMFlg1=           0
         NFxFlg=           0 DoJE=T BraDBF=F KetDBF=T FulRan=T
         wScrn=  0.000000 ICntrl=       500 IOpCl=  0 I1Cent=   200000004 NGrid=           0
         NMat0=    1 NMatS0=      1 NMatT0=    0 NMatD0=    1 NMtDS0=    0 NMtDT0=    0
 Petite list used in FoFCou.
 Requested convergence on RMS density matrix=1.00D-08 within 128 cycles.
 Requested convergence on MAX density matrix=1.00D-06.
 Requested convergence on             energy=1.00D-06.
 No special actions if energy rises.
 Integral accuracy reduced to 1.0D-05 until final iterations.
 Problem detected with inexpensive integrals.
 Switching to full accuracy and repeating last cycle.
 SCF Done:  E(RM062X) =  -1137.44837333     A.U. after   21 cycles
            NFock= 21  Conv=0.34D-08     -V/T= 2.0044

 **********************************************************************

            Population analysis using the SCF Density.

 **********************************************************************

 Orbital symmetries:
       Occupied  (A) (A) (A) (A) (A) (A) (A) (A) (A) (A) (A) (A)
                 (A) (A) (A) (A) (A) (A) (A) (A) (A) (A) (A) (A)
                 (A) (A) (A) (A) (A) (A) (A) (A) (A) (A) (A) (A)
                 (A) (A) (A) (A) (A) (A) (A) (A) (A) (A) (A) (A)
                 (A) (A) (A) (A) (A) (A) (A) (A) (A) (A) (A) (A)
                 (A) (A) (A) (A) (A) (A) (A) (A) (A) (A) (A) (A)
                 (A)
       Virtual   (A) (A) (A) (A) (A) (A) (A) (A) (A) (A) (A) (A)
                 (A) (A) (A) (A) (A) (A) (A) (A) (A) (A) (A) (A)
                 (A) (A) (A) (A) (A) (A) (A) (A) (A) (A) (A) (A)
                 (A) (A) (A) (A) (A) (A) (A) (A) (A) (A) (A) (A)
                 (A) (A) (A) (A) (A) (A) (A) (A) (A) (A) (A) (A)
                 (A) (A) (A) (A) (A) (A) (A) (A) (A) (A) (A) (A)
                 (A) (A) (A) (A) (A) (A) (A) (A) (A) (A) (A) (A)
                 (A) (A) (A) (A) (A) (A) (A) (A) (A) (A) (A) (A)
                 (A) (A) (A) (A) (A) (A) (A) (A) (A) (A) (A) (A)
                 (A) (A) (A) (A) (A) (A) (A) (A) (A) (A) (A) (A)
                 (A) (A) (A) (A) (A) (A) (A) (A) (A) (A) (A) (A)
                 (A) (A) (A) (A) (A) (A) (A) (A) (A) (A) (A) (A)
                 (A) (A) (A) (A) (A) (A) (A) (A) (A) (A) (A) (A)
                 (A) (A) (A) (A) (A) (A) (A) (A) (A) (A) (A) (A)
                 (A) (A) (A) (A) (A) (A) (A) (A) (A) (A) (A) (A)
                 (A) (A) (A) (A) (A) (A) (A) (A) (A) (A) (A) (A)
                 (A) (A) (A) (A) (A) (A) (A) (A) (A) (A) (A) (A)
                 (A) (A) (A) (A) (A) (A) (A) (A) (A) (A) (A) (A)
                 (A) (A) (A) (A) (A) (A) (A) (A) (A) (A) (A) (A)
                 (A) (A) (A) (A) (A) (A) (A) (A) (A) (A) (A) (A)
                 (A) (A) (A) (A) (A) (A) (A) (A) (A) (A) (A) (A)
                 (A) (A) (A) (A) (A) (A) (A) (A) (A) (A) (A) (A)
                 (A) (A) (A) (A) (A) (A) (A) (A) (A) (A) (A) (A)
                 (A) (A) (A) (A) (A) (A) (A) (A) (A) (A) (A) (A)
                 (A) (A) (A) (A) (A) (A) (A) (A) (A) (A) (A) (A)
                 (A) (A) (A) (A) (A) (A) (A) (A) (A) (A) (A) (A)
                 (A) (A) (A) (A) (A) (A) (A) (A) (A) (A) (A) (A)
                 (A) (A) (A) (A) (A) (A) (A) (A) (A) (A) (A) (A)
                 (A) (A) (A) (A) (A) (A) (A) (A) (A) (A) (A) (A)
                 (A) (A) (A) (A) (A) (A) (A) (A) (A) (A) (A) (A)
                 (A) (A) (A) (A) (A) (A) (A) (A) (A) (A) (A) (A)
                 (A) (A) (A) (A) (A) (A) (A) (A) (A) (A) (A) (A)
                 (A) (A) (A) (A) (A) (A) (A) (A) (A) (A) (A) (A)
                 (A) (A) (A) (A) (A) (A) (A) (A) (A) (A) (A) (A)
                 (A) (A) (A) (A) (A) (A) (A) (A) (A) (A) (A) (A)
                 (A) (A) (A) (A) (A) (A) (A) (A) (A) (A) (A) (A)
                 (A) (A) (A) (A) (A) (A) (A) (A) (A) (A) (A) (A)
                 (A) (A) (A) (A) (A) (A) (A) (A) (A) (A) (A) (A)
                 (A) (A) (A) (A) (A) (A) (A) (A) (A) (A) (A) (A)
                 (A) (A) (A) (A) (A) (A) (A) (A) (A) (A) (A) (A)
                 (A) (A) (A) (A) (A) (A) (A) (A) (A) (A) (A) (A)
                 (A) (A) (A) (A) (A) (A) (A) (A) (A) (A) (A) (A)
                 (A) (A) (A) (A) (A) (A) (A) (A) (A) (A) (A) (A)
                 (A) (A) (A) (A) (A) (A) (A) (A) (A) (A) (A) (A)
                 (A) (A) (A) (A) (A) (A) (A) (A) (A) (A) (A) (A)
                 (A) (A) (A) (A) (A) (A) (A) (A) (A) (A) (A) (A)
                 (A) (A) (A) (A) (A) (A) (A) (A) (A) (A) (A) (A)
                 (A) (A) (A) (A) (A) (A) (A) (A) (A) (A) (A) (A)
                 (A) (A) (A) (A) (A) (A) (A) (A) (A) (A) (A) (A)
                 (A) (A) (A) (A) (A) (A) (A)
 The electronic state is 1-A.
 Alpha  occ. eigenvalues --  -25.29124 -25.29123 -25.29118 -25.29117 -25.28764
 Alpha  occ. eigenvalues --  -25.28763 -10.80943 -10.80942 -10.59237 -10.59235
 Alpha  occ. eigenvalues --  -10.58688 -10.58323 -10.57999 -10.57994 -10.57411
 Alpha  occ. eigenvalues --  -10.56002 -10.55998 -10.55757 -10.55737 -10.55589
 Alpha  occ. eigenvalues --   -1.47981  -1.47978  -1.38843  -1.38841  -1.38696
 Alpha  occ. eigenvalues --   -1.38696  -1.00912  -0.97761  -0.91694  -0.91096
 Alpha  occ. eigenvalues --   -0.86044  -0.84759  -0.82565  -0.81824  -0.74792
 Alpha  occ. eigenvalues --   -0.74695  -0.71844  -0.70908  -0.70575  -0.70535
 Alpha  occ. eigenvalues --   -0.70122  -0.70089  -0.66378  -0.63665  -0.61196
 Alpha  occ. eigenvalues --   -0.60014  -0.59028  -0.58748  -0.58399  -0.58080
 Alpha  occ. eigenvalues --   -0.56553  -0.55327  -0.54881  -0.54718  -0.54327
 Alpha  occ. eigenvalues --   -0.53933  -0.52641  -0.52621  -0.52364  -0.51249
 Alpha  occ. eigenvalues --   -0.50594  -0.49662  -0.48937  -0.47485  -0.45328
 Alpha  occ. eigenvalues --   -0.45102  -0.43865  -0.41745  -0.41624  -0.36036
 Alpha  occ. eigenvalues --   -0.34531  -0.32489  -0.30349
 Alpha virt. eigenvalues --   -0.03128  -0.02422   0.00407   0.02571   0.07261
 Alpha virt. eigenvalues --    0.08904   0.08953   0.10698   0.11345   0.12219
 Alpha virt. eigenvalues --    0.12797   0.12851   0.14826   0.14979   0.15107
 Alpha virt. eigenvalues --    0.15253   0.17193   0.17671   0.17854   0.18571
 Alpha virt. eigenvalues --    0.19808   0.20629   0.21525   0.21704   0.22521
 Alpha virt. eigenvalues --    0.22927   0.23919   0.23954   0.24226   0.24505
 Alpha virt. eigenvalues --    0.25277   0.25350   0.25878   0.27018   0.27429
 Alpha virt. eigenvalues --    0.28893   0.29022   0.29471   0.29577   0.29720
 Alpha virt. eigenvalues --    0.30120   0.30339   0.30867   0.31931   0.32235
 Alpha virt. eigenvalues --    0.32700   0.34002   0.34412   0.35094   0.35918
 Alpha virt. eigenvalues --    0.36569   0.36760   0.37258   0.37789   0.38161
 Alpha virt. eigenvalues --    0.38598   0.39720   0.39759   0.40745   0.41089
 Alpha virt. eigenvalues --    0.42860   0.43076   0.43764   0.44353   0.44568
 Alpha virt. eigenvalues --    0.44888   0.46306   0.46363   0.46676   0.47523
 Alpha virt. eigenvalues --    0.47972   0.50247   0.50372   0.51636   0.51642
 Alpha virt. eigenvalues --    0.52703   0.53358   0.53915   0.54773   0.55238
 Alpha virt. eigenvalues --    0.56383   0.57112   0.57949   0.59188   0.59238
 Alpha virt. eigenvalues --    0.60352   0.61239   0.62010   0.62752   0.64050
 Alpha virt. eigenvalues --    0.64229   0.66026   0.67789   0.67862   0.68548
 Alpha virt. eigenvalues --    0.69055   0.69512   0.70586   0.70692   0.71621
 Alpha virt. eigenvalues --    0.72741   0.72892   0.72998   0.73189   0.74958
 Alpha virt. eigenvalues --    0.75474   0.75515   0.76621   0.77194   0.77266
 Alpha virt. eigenvalues --    0.78240   0.78662   0.79665   0.79893   0.80623
 Alpha virt. eigenvalues --    0.82341   0.82608   0.83220   0.83951   0.84006
 Alpha virt. eigenvalues --    0.85126   0.85538   0.86643   0.87035   0.87325
 Alpha virt. eigenvalues --    0.88504   0.88658   0.90751   0.91447   0.91953
 Alpha virt. eigenvalues --    0.92324   0.94528   0.94740   0.95280   0.96139
 Alpha virt. eigenvalues --    0.97239   0.97317   0.98124   0.99257   1.00282
 Alpha virt. eigenvalues --    1.01922   1.02054   1.02852   1.03712   1.04687
 Alpha virt. eigenvalues --    1.04740   1.05469   1.06040   1.06754   1.09071
 Alpha virt. eigenvalues --    1.09223   1.10666   1.14062   1.14313   1.16038
 Alpha virt. eigenvalues --    1.16148   1.19157   1.19669   1.20049   1.20619
 Alpha virt. eigenvalues --    1.21685   1.23949   1.24257   1.25657   1.26952
 Alpha virt. eigenvalues --    1.26973   1.27609   1.29016   1.30297   1.30445
 Alpha virt. eigenvalues --    1.31183   1.31549   1.32908   1.34743   1.35176
 Alpha virt. eigenvalues --    1.36548   1.37215   1.38663   1.39752   1.40167
 Alpha virt. eigenvalues --    1.42171   1.42372   1.43907   1.44939   1.47246
 Alpha virt. eigenvalues --    1.48135   1.49374   1.50281   1.52132   1.53776
 Alpha virt. eigenvalues --    1.53932   1.54554   1.56759   1.58011   1.58765
 Alpha virt. eigenvalues --    1.59511   1.61540   1.62935   1.64506   1.64903
 Alpha virt. eigenvalues --    1.65475   1.66707   1.67712   1.68969   1.70197
 Alpha virt. eigenvalues --    1.70840   1.72343   1.72566   1.73879   1.74680
 Alpha virt. eigenvalues --    1.75638   1.76150   1.77010   1.78607   1.79933
 Alpha virt. eigenvalues --    1.80249   1.84263   1.86857   1.88542   1.89223
 Alpha virt. eigenvalues --    1.89926   1.91298   1.93147   1.93425   1.94520
 Alpha virt. eigenvalues --    1.96743   1.96798   1.98025   1.98025   1.99886
 Alpha virt. eigenvalues --    2.00265   2.00308   2.01259   2.01890   2.04283
 Alpha virt. eigenvalues --    2.04716   2.06353   2.07547   2.09099   2.09470
 Alpha virt. eigenvalues --    2.09716   2.11093   2.12809   2.13353   2.15296
 Alpha virt. eigenvalues --    2.15335   2.16276   2.16470   2.17826   2.18903
 Alpha virt. eigenvalues --    2.20953   2.20956   2.22080   2.25076   2.26097
 Alpha virt. eigenvalues --    2.26330   2.27902   2.31059   2.32482   2.33104
 Alpha virt. eigenvalues --    2.33508   2.34210   2.36896   2.38789   2.39172
 Alpha virt. eigenvalues --    2.40384   2.40843   2.41803   2.43752   2.45143
 Alpha virt. eigenvalues --    2.45937   2.47441   2.47590   2.48349   2.50010
 Alpha virt. eigenvalues --    2.50246   2.51271   2.52040   2.53097   2.54155
 Alpha virt. eigenvalues --    2.55052   2.56064   2.58389   2.60425   2.60502
 Alpha virt. eigenvalues --    2.61496   2.62358   2.63263   2.63472   2.64466
 Alpha virt. eigenvalues --    2.65237   2.65253   2.66123   2.66820   2.67768
 Alpha virt. eigenvalues --    2.68173   2.69400   2.70655   2.70868   2.72104
 Alpha virt. eigenvalues --    2.73791   2.74367   2.75169   2.75599   2.75958
 Alpha virt. eigenvalues --    2.77851   2.78868   2.79017   2.80981   2.81600
 Alpha virt. eigenvalues --    2.82390   2.82828   2.82997   2.83385   2.85112
 Alpha virt. eigenvalues --    2.85920   2.86382   2.87196   2.88353   2.89185
 Alpha virt. eigenvalues --    2.89734   2.90326   2.90856   2.91835   2.94434
 Alpha virt. eigenvalues --    2.95315   2.96419   2.96977   2.99386   2.99607
 Alpha virt. eigenvalues --    3.00528   3.00607   3.02127   3.02464   3.05107
 Alpha virt. eigenvalues --    3.05958   3.06269   3.06669   3.07099   3.08583
 Alpha virt. eigenvalues --    3.09877   3.11714   3.11940   3.13413   3.14130
 Alpha virt. eigenvalues --    3.14553   3.15052   3.15497   3.16832   3.17278
 Alpha virt. eigenvalues --    3.18367   3.18823   3.19046   3.19915   3.21095
 Alpha virt. eigenvalues --    3.21422   3.21657   3.22675   3.24110   3.25346
 Alpha virt. eigenvalues --    3.25522   3.26045   3.27254   3.27741   3.28171
 Alpha virt. eigenvalues --    3.28773   3.29682   3.30374   3.30788   3.31045
 Alpha virt. eigenvalues --    3.31063   3.33175   3.33489   3.33668   3.36139
 Alpha virt. eigenvalues --    3.36540   3.37224   3.37785   3.38996   3.39549
 Alpha virt. eigenvalues --    3.40263   3.41472   3.41903   3.42169   3.42740
 Alpha virt. eigenvalues --    3.45535   3.46888   3.47141   3.48036   3.48136
 Alpha virt. eigenvalues --    3.48397   3.49431   3.50320   3.51809   3.52202
 Alpha virt. eigenvalues --    3.53266   3.53649   3.57731   3.57830   3.59447
 Alpha virt. eigenvalues --    3.60436   3.60961   3.62270   3.63507   3.67026
 Alpha virt. eigenvalues --    3.67372   3.68032   3.70323   3.71265   3.72847
 Alpha virt. eigenvalues --    3.72987   3.75193   3.77022   3.79249   3.82004
 Alpha virt. eigenvalues --    3.82434   3.84025   3.84529   3.85197   3.85935
 Alpha virt. eigenvalues --    3.87477   3.89723   3.91922   3.92069   3.93697
 Alpha virt. eigenvalues --    3.95104   3.95271   3.95904   3.95920   3.96452
 Alpha virt. eigenvalues --    3.98442   3.98880   3.99157   3.99343   3.99825
 Alpha virt. eigenvalues --    4.03230   4.04494   4.05181   4.05748   4.06886
 Alpha virt. eigenvalues --    4.07611   4.07888   4.10404   4.11342   4.13212
 Alpha virt. eigenvalues --    4.13363   4.14829   4.16227   4.16247   4.17814
 Alpha virt. eigenvalues --    4.17826   4.18260   4.19359   4.20687   4.21074
 Alpha virt. eigenvalues --    4.22073   4.23553   4.26968   4.27378   4.29377
 Alpha virt. eigenvalues --    4.31145   4.34016   4.35300   4.36872   4.39853
 Alpha virt. eigenvalues --    4.40391   4.49243   4.54372   4.57356   4.59637
 Alpha virt. eigenvalues --    4.59873   4.61058   4.61404   4.63966   4.64137
 Alpha virt. eigenvalues --    4.70175   4.74292   4.74315   4.82205   4.84591
 Alpha virt. eigenvalues --    4.85927   4.88967   4.94019   4.99257   4.99666
 Alpha virt. eigenvalues --    5.09809   5.14573   5.16333   5.17184   5.19242
 Alpha virt. eigenvalues --    5.20672   5.25367   5.32579   5.32762   5.33600
 Alpha virt. eigenvalues --    5.35010   5.45979   5.46864   5.47976   5.50523
 Alpha virt. eigenvalues --    5.51754   5.58462   5.71012   6.82165   6.82170
 Alpha virt. eigenvalues --    6.87011   6.87077   6.87220   6.87256   6.87532
 Alpha virt. eigenvalues --    6.87608   6.87663   6.87722   6.88225   6.88279
 Alpha virt. eigenvalues --    6.88500   6.88763   6.88815   6.89314   6.90029
 Alpha virt. eigenvalues --    6.90279   6.98327   6.98546   7.01141   7.01181
 Alpha virt. eigenvalues --    7.01708   7.01940   7.06535   7.06790   7.07223
 Alpha virt. eigenvalues --    7.07805   7.14300   7.14679   7.35578   7.35861
 Alpha virt. eigenvalues --    7.38437   7.38755   7.39065   7.40166   7.54930
 Alpha virt. eigenvalues --    7.55604   7.58727   7.59301   7.59430   7.59854
 Alpha virt. eigenvalues --    8.29118   8.29435   8.31078   8.31661   8.32389
 Alpha virt. eigenvalues --    8.32947   8.45719   8.45796   8.46327   8.46351
 Alpha virt. eigenvalues --    8.54299   8.56206   8.70003   8.70552   8.76893
 Alpha virt. eigenvalues --    8.77102   8.77936   8.78138   8.86000   8.86133
 Alpha virt. eigenvalues --    8.91978   8.92491   8.97252   8.97377   8.98376
 Alpha virt. eigenvalues --    8.98559   9.07165   9.08272   9.09850   9.10555
 Alpha virt. eigenvalues --   22.05544  22.39229  22.67012  22.69961  22.80751
 Alpha virt. eigenvalues --   22.81216  22.86858  22.91405  22.98442  23.02335
 Alpha virt. eigenvalues --   23.07223  23.08290  23.28913  23.44802  57.36366
 Alpha virt. eigenvalues --   57.37946  57.38677  57.39319  57.46396  57.54158
          Condensed to atoms (all electrons):
               1          2          3          4          5          6
     1  C    4.999804   0.494632  -0.049704  -0.044060  -0.049694   0.494612
     2  C    0.494632   5.024399   0.496755  -0.036436  -0.052968  -0.024941
     3  C   -0.049704   0.496755   4.906100   0.515062  -0.030887  -0.052999
     4  C   -0.044060  -0.036436   0.515062   4.877358   0.514997  -0.036408
     5  C   -0.049694  -0.052968  -0.030887   0.514997   4.906175   0.496715
     6  C    0.494612  -0.024941  -0.052999  -0.036408   0.496715   5.024496
     7  H   -0.037797   0.396266  -0.019901   0.002840  -0.000499   0.005128
     8  H    0.004605  -0.030388   0.408497  -0.030574   0.003604  -0.000042
     9  H    0.000840   0.004397  -0.034053   0.410100  -0.034072   0.004399
    10  H    0.004603  -0.000042   0.003601  -0.030573   0.408522  -0.030387
    11  H   -0.037778   0.005122  -0.000497   0.002838  -0.019907   0.396236
    12  C    0.001288  -0.000249   0.000033  -0.000008   0.000033  -0.000249
    13  C    0.009635   0.004736  -0.000229  -0.000017   0.000078  -0.000752
    14  C   -0.083206  -0.000802   0.002018  -0.000046  -0.000659   0.010712
    15  C    0.259739  -0.081698   0.007778  -0.003706   0.007782  -0.081717
    16  C   -0.083206   0.010716  -0.000661  -0.000045   0.002014  -0.000794
    17  C    0.009633  -0.000754   0.000079  -0.000017  -0.000228   0.004738
    18  H    0.001436   0.002766   0.000650  -0.000053  -0.000095   0.000137
    19  H    0.001433   0.000136  -0.000094  -0.000053   0.000650   0.002768
    20  H    0.000186  -0.000007   0.000000  -0.000000   0.000000  -0.000007
    21  C   -0.000876   0.000201  -0.000010   0.000001  -0.000001   0.000031
    22  F   -0.000136   0.000010   0.000000  -0.000000   0.000000  -0.000002
    23  F    0.000333  -0.000271  -0.000006   0.000000  -0.000000   0.000005
    24  F    0.000003  -0.000001  -0.000000   0.000000  -0.000000   0.000000
    25  C   -0.000876   0.000031  -0.000001   0.000001  -0.000010   0.000201
    26  F   -0.000136  -0.000002   0.000000  -0.000000   0.000000   0.000010
    27  F    0.000333   0.000005  -0.000000   0.000000  -0.000006  -0.000271
    28  F    0.000003   0.000000  -0.000000   0.000000  -0.000000  -0.000001
               7          8          9         10         11         12
     1  C   -0.037797   0.004605   0.000840   0.004603  -0.037778   0.001288
     2  C    0.396266  -0.030388   0.004397  -0.000042   0.005122  -0.000249
     3  C   -0.019901   0.408497  -0.034053   0.003601  -0.000497   0.000033
     4  C    0.002840  -0.030574   0.410100  -0.030573   0.002838  -0.000008
     5  C   -0.000499   0.003604  -0.034072   0.408522  -0.019907   0.000033
     6  C    0.005128  -0.000042   0.004399  -0.030387   0.396236  -0.000249
     7  H    0.481607  -0.003243  -0.000261   0.000058  -0.000211  -0.000281
     8  H   -0.003243   0.501567  -0.003786  -0.000253   0.000058  -0.000000
     9  H   -0.000261  -0.003786   0.509176  -0.003780  -0.000261  -0.000000
    10  H    0.000058  -0.000253  -0.003780   0.501527  -0.003241  -0.000000
    11  H   -0.000211   0.000058  -0.000261  -0.003241   0.481634  -0.000281
    12  C   -0.000281  -0.000000  -0.000000  -0.000000  -0.000281   5.205112
    13  C    0.001107   0.000004   0.000000   0.000000   0.000064   0.370979
    14  C    0.001447   0.000038  -0.000009   0.000031   0.000332  -0.029503
    15  C    0.002978  -0.000113   0.000084  -0.000113   0.002976  -0.062382
    16  C    0.000333   0.000031  -0.000009   0.000038   0.001444  -0.029509
    17  C    0.000064   0.000000   0.000000   0.000004   0.001109   0.370993
    18  H   -0.002053   0.000041  -0.000000   0.000001   0.000049   0.007852
    19  H    0.000049   0.000001  -0.000000   0.000041  -0.002054   0.007857
    20  H   -0.000002  -0.000000  -0.000000  -0.000000  -0.000002   0.393236
    21  C    0.000156   0.000000  -0.000000   0.000000   0.000001  -0.042551
    22  F    0.000000  -0.000000  -0.000000  -0.000000  -0.000000   0.003300
    23  F    0.000247  -0.000000   0.000000  -0.000000   0.000000   0.003981
    24  F    0.000000  -0.000000   0.000000  -0.000000  -0.000000   0.011137
    25  C    0.000001   0.000000  -0.000000   0.000000   0.000156  -0.042573
    26  F   -0.000000  -0.000000  -0.000000  -0.000000   0.000000   0.003308
    27  F    0.000000  -0.000000   0.000000  -0.000000   0.000247   0.003979
    28  F   -0.000000  -0.000000   0.000000  -0.000000   0.000000   0.011133
              13         14         15         16         17         18
     1  C    0.009635  -0.083206   0.259739  -0.083206   0.009633   0.001436
     2  C    0.004736  -0.000802  -0.081698   0.010716  -0.000754   0.002766
     3  C   -0.000229   0.002018   0.007778  -0.000661   0.000079   0.000650
     4  C   -0.000017  -0.000046  -0.003706  -0.000045  -0.000017  -0.000053
     5  C    0.000078  -0.000659   0.007782   0.002014  -0.000228  -0.000095
     6  C   -0.000752   0.010712  -0.081717  -0.000794   0.004738   0.000137
     7  H    0.001107   0.001447   0.002978   0.000333   0.000064  -0.002053
     8  H    0.000004   0.000038  -0.000113   0.000031   0.000000   0.000041
     9  H    0.000000  -0.000009   0.000084  -0.000009   0.000000  -0.000000
    10  H    0.000000   0.000031  -0.000113   0.000038   0.000004   0.000001
    11  H    0.000064   0.000332   0.002976   0.001444   0.001109   0.000049
    12  C    0.370979  -0.029503  -0.062382  -0.029509   0.370993   0.007852
    13  C    5.211556   0.353373  -0.024386  -0.067571  -0.000772  -0.014329
    14  C    0.353373   5.265852   0.440438  -0.020133  -0.067572   0.372310
    15  C   -0.024386   0.440438   5.036463   0.440520  -0.024412  -0.025434
    16  C   -0.067571  -0.020133   0.440520   5.265647   0.353482   0.006575
    17  C   -0.000772  -0.067572  -0.024412   0.353482   5.211499  -0.000571
    18  H   -0.014329   0.372310  -0.025434   0.006575  -0.000571   0.453295
    19  H   -0.000573   0.006578  -0.025434   0.372273  -0.014323  -0.000160
    20  H   -0.026231   0.007938   0.000411   0.007936  -0.026238  -0.000156
    21  C    0.453509  -0.037617   0.002963   0.000992   0.004185  -0.003295
    22  F   -0.087690   0.002606  -0.001043   0.000252  -0.000650   0.000534
    23  F   -0.077557   0.006786   0.001451  -0.000264  -0.000048   0.006578
    24  F   -0.079870   0.004015  -0.000342  -0.000128   0.001984   0.000262
    25  C    0.004192   0.000989   0.002964  -0.037616   0.453536   0.000047
    26  F   -0.000652   0.000253  -0.001047   0.002615  -0.087711   0.000000
    27  F   -0.000047  -0.000265   0.001455   0.006779  -0.077551  -0.000001
    28  F    0.001985  -0.000128  -0.000342   0.004014  -0.079861  -0.000000
              19         20         21         22         23         24
     1  C    0.001433   0.000186  -0.000876  -0.000136   0.000333   0.000003
     2  C    0.000136  -0.000007   0.000201   0.000010  -0.000271  -0.000001
     3  C   -0.000094   0.000000  -0.000010   0.000000  -0.000006  -0.000000
     4  C   -0.000053  -0.000000   0.000001  -0.000000   0.000000   0.000000
     5  C    0.000650   0.000000  -0.000001   0.000000  -0.000000  -0.000000
     6  C    0.002768  -0.000007   0.000031  -0.000002   0.000005   0.000000
     7  H    0.000049  -0.000002   0.000156   0.000000   0.000247   0.000000
     8  H    0.000001  -0.000000   0.000000  -0.000000  -0.000000  -0.000000
     9  H   -0.000000  -0.000000  -0.000000  -0.000000   0.000000   0.000000
    10  H    0.000041  -0.000000   0.000000  -0.000000  -0.000000  -0.000000
    11  H   -0.002054  -0.000002   0.000001  -0.000000   0.000000  -0.000000
    12  C    0.007857   0.393236  -0.042551   0.003300   0.003981   0.011137
    13  C   -0.000573  -0.026231   0.453509  -0.087690  -0.077557  -0.079870
    14  C    0.006578   0.007938  -0.037617   0.002606   0.006786   0.004015
    15  C   -0.025434   0.000411   0.002963  -0.001043   0.001451  -0.000342
    16  C    0.372273   0.007936   0.000992   0.000252  -0.000264  -0.000128
    17  C   -0.014323  -0.026238   0.004185  -0.000650  -0.000048   0.001984
    18  H   -0.000160  -0.000156  -0.003295   0.000534   0.006578   0.000262
    19  H    0.453320  -0.000156   0.000047  -0.000000  -0.000001  -0.000000
    20  H   -0.000156   0.458266  -0.006993   0.000172   0.000178   0.006905
    21  C    0.000047  -0.006993   4.098017   0.350206   0.334361   0.334297
    22  F   -0.000000   0.000172   0.350206   8.992271  -0.046908  -0.046733
    23  F   -0.000001   0.000178   0.334361  -0.046908   8.990976  -0.044716
    24  F   -0.000000   0.006905   0.334297  -0.046733  -0.044716   8.986703
    25  C   -0.003290  -0.006997  -0.000138  -0.000007  -0.000002  -0.000066
    26  F    0.000536   0.000172  -0.000007  -0.000000  -0.000000   0.000000
    27  F    0.006574   0.000178  -0.000002  -0.000000  -0.000000  -0.000000
    28  F    0.000262   0.006907  -0.000066   0.000000  -0.000000   0.000001
              25         26         27         28
     1  C   -0.000876  -0.000136   0.000333   0.000003
     2  C    0.000031  -0.000002   0.000005   0.000000
     3  C   -0.000001   0.000000  -0.000000  -0.000000
     4  C    0.000001  -0.000000   0.000000   0.000000
     5  C   -0.000010   0.000000  -0.000006  -0.000000
     6  C    0.000201   0.000010  -0.000271  -0.000001
     7  H    0.000001  -0.000000   0.000000  -0.000000
     8  H    0.000000  -0.000000  -0.000000  -0.000000
     9  H   -0.000000  -0.000000   0.000000   0.000000
    10  H    0.000000  -0.000000  -0.000000  -0.000000
    11  H    0.000156   0.000000   0.000247   0.000000
    12  C   -0.042573   0.003308   0.003979   0.011133
    13  C    0.004192  -0.000652  -0.000047   0.001985
    14  C    0.000989   0.000253  -0.000265  -0.000128
    15  C    0.002964  -0.001047   0.001455  -0.000342
    16  C   -0.037616   0.002615   0.006779   0.004014
    17  C    0.453536  -0.087711  -0.077551  -0.079861
    18  H    0.000047   0.000000  -0.000001  -0.000000
    19  H   -0.003290   0.000536   0.006574   0.000262
    20  H   -0.006997   0.000172   0.000178   0.006907
    21  C   -0.000138  -0.000007  -0.000002  -0.000066
    22  F   -0.000007  -0.000000  -0.000000   0.000000
    23  F   -0.000002  -0.000000  -0.000000  -0.000000
    24  F   -0.000066   0.000000  -0.000000   0.000001
    25  C    4.098016   0.350206   0.334362   0.334298
    26  F    0.350206   8.992261  -0.046914  -0.046723
    27  F    0.334362  -0.046914   8.990997  -0.044718
    28  F    0.334298  -0.046723  -0.044718   8.986681
 Mulliken charges:
               1
     1  C    0.104350
     2  C   -0.211614
     3  C   -0.151531
     4  C   -0.141200
     5  C   -0.151545
     6  C   -0.211619
     7  H    0.171967
     8  H    0.149954
     9  H    0.147236
    10  H    0.149962
    11  H    0.171965
    12  C   -0.186634
    13  C   -0.030540
    14  C   -0.235775
    15  C    0.124169
    16  C   -0.235726
    17  C   -0.030596
    18  H    0.193612
    19  H    0.193612
    20  H    0.184304
    21  C    0.512587
    22  F   -0.166185
    23  F   -0.175125
    24  F   -0.173449
    25  C    0.512573
    26  F   -0.166172
    27  F   -0.175135
    28  F   -0.173444
 Sum of Mulliken charges =  -0.00000
 Mulliken charges with hydrogens summed into heavy atoms:
               1
     1  C    0.104350
     2  C   -0.039647
     3  C   -0.001577
     4  C    0.006037
     5  C   -0.001583
     6  C   -0.039654
    12  C   -0.002330
    13  C   -0.030540
    14  C   -0.042163
    15  C    0.124169
    16  C   -0.042114
    17  C   -0.030596
    21  C    0.512587
    22  F   -0.166185
    23  F   -0.175125
    24  F   -0.173449
    25  C    0.512573
    26  F   -0.166172
    27  F   -0.175135
    28  F   -0.173444
 Electronic spatial extent (au):  <R**2>=           6504.2102
 Charge=             -0.0000 electrons
 Dipole moment (field-independent basis, Debye):
    X=             -3.1916    Y=              0.0000    Z=             -0.0001  Tot=              3.1916
 Quadrupole moment (field-independent basis, Debye-Ang):
   XX=           -102.9590   YY=           -116.5766   ZZ=           -114.2676
   XY=             -0.0003   XZ=             -0.0004   YZ=              4.3215
 Traceless Quadrupole moment (field-independent basis, Debye-Ang):
   XX=              8.3088   YY=             -5.3089   ZZ=             -2.9999
   XY=             -0.0003   XZ=             -0.0004   YZ=              4.3215
 Octapole moment (field-independent basis, Debye-Ang**2):
  XXX=             14.4968  YYY=             -0.0022  ZZZ=             -0.0000  XYY=             -0.0230
  XXY=              0.0099  XXZ=              0.0016  XZZ=             30.3511  YZZ=              0.0001
  YYZ=             -0.0004  XYZ=            -14.4985
 Hexadecapole moment (field-independent basis, Debye-Ang**3):
 XXXX=          -4481.0307 YYYY=          -2613.5887 ZZZZ=           -351.1013 XXXY=             -0.0332
 XXXZ=             -0.0081 YYYX=             -0.0055 YYYZ=             -2.8432 ZZZX=              0.0020
 ZZZY=             -0.5144 XXYY=          -1261.7712 XXZZ=           -906.9993 YYZZ=           -486.2852
 XXYZ=             68.9462 YYXZ=             -0.0045 ZZXY=             -0.0012
 N-N= 1.539444076480D+03 E-N=-5.755258556611D+03  KE= 1.132456581790D+03
 ******************************Gaussian NBO Version 3.1******************************
             N A T U R A L   A T O M I C   O R B I T A L   A N D
          N A T U R A L   B O N D   O R B I T A L   A N A L Y S I S
 ******************************Gaussian NBO Version 3.1******************************
       /RESON  / : Allow strongly delocalized NBO set

 Analyzing the SCF density

 Job title: Structure697                                                    

 Storage needed:   1341720 in NPA,   1787715 in NBO (1048571800 available)
 GSVD:  LWork=      103440 too small for GESVD, short by      578420 words or      578420 for optimal perf.


 NATURAL POPULATIONS:  Natural atomic orbital occupancies 
                                                          
   NAO  Atom  No  lang   Type(AO)    Occupancy      Energy
 ----------------------------------------------------------
     1    C    1  S      Cor( 1S)     1.99910     -10.41067
     2    C    1  S      Val( 2S)     0.90873      -0.22005
     3    C    1  S      Ryd( 3S)     0.00085       1.43782
     4    C    1  S      Ryd( 4S)     0.00016       1.80389
     5    C    1  S      Ryd( 5S)     0.00000      21.30586
     6    C    1  px     Val( 2p)     1.03388      -0.07548
     7    C    1  px     Ryd( 3p)     0.00613       1.22797
     8    C    1  px     Ryd( 4p)     0.00041       1.87016
     9    C    1  py     Val( 2p)     1.05921      -0.10527
    10    C    1  py     Ryd( 3p)     0.00405       1.05213
    11    C    1  py     Ryd( 4p)     0.00031       1.43869
    12    C    1  pz     Val( 2p)     1.04006      -0.11774
    13    C    1  pz     Ryd( 3p)     0.00173       0.87816
    14    C    1  pz     Ryd( 4p)     0.00030       1.36585
    15    C    1  dxy    Ryd( 3d)     0.00128       2.06834
    16    C    1  dxy    Ryd( 4d)     0.00035       3.37473
    17    C    1  dxz    Ryd( 3d)     0.00058       1.60043
    18    C    1  dxz    Ryd( 4d)     0.00033       3.33133
    19    C    1  dyz    Ryd( 3d)     0.00050       1.87474
    20    C    1  dyz    Ryd( 4d)     0.00024       3.36436
    21    C    1  dx2y2  Ryd( 3d)     0.00111       2.23022
    22    C    1  dx2y2  Ryd( 4d)     0.00053       3.45449
    23    C    1  dz2    Ryd( 3d)     0.00031       1.52902
    24    C    1  dz2    Ryd( 4d)     0.00038       3.46120
    25    C    1  f(0)   Ryd( 4f)     0.00005       3.66482
    26    C    1  f(C1)  Ryd( 4f)     0.00006       3.72337
    27    C    1  f(S1)  Ryd( 4f)     0.00010       3.50899
    28    C    1  f(C2)  Ryd( 4f)     0.00009       3.77557
    29    C    1  f(S2)  Ryd( 4f)     0.00006       3.96292
    30    C    1  f(C3)  Ryd( 4f)     0.00009       4.03310
    31    C    1  f(S3)  Ryd( 4f)     0.00005       4.09269
 
    32    C    2  S      Cor( 1S)     1.99916     -10.39825
    33    C    2  S      Val( 2S)     0.96981      -0.24413
    34    C    2  S      Ryd( 3S)     0.00102       1.32952
    35    C    2  S      Ryd( 4S)     0.00018       1.49125
    36    C    2  S      Ryd( 5S)     0.00001      21.37557
    37    C    2  px     Val( 2p)     1.08079      -0.08388
    38    C    2  px     Ryd( 3p)     0.00308       1.14561
    39    C    2  px     Ryd( 4p)     0.00018       2.41734
    40    C    2  py     Val( 2p)     1.07976      -0.09958
    41    C    2  py     Ryd( 3p)     0.00318       0.93232
    42    C    2  py     Ryd( 4p)     0.00029       2.20586
    43    C    2  pz     Val( 2p)     1.04603      -0.11292
    44    C    2  pz     Ryd( 3p)     0.00221       0.81105
    45    C    2  pz     Ryd( 4p)     0.00032       1.86932
    46    C    2  dxy    Ryd( 3d)     0.00129       1.65497
    47    C    2  dxy    Ryd( 4d)     0.00055       3.35922
    48    C    2  dxz    Ryd( 3d)     0.00080       1.54804
    49    C    2  dxz    Ryd( 4d)     0.00040       3.21044
    50    C    2  dyz    Ryd( 3d)     0.00100       1.59872
    51    C    2  dyz    Ryd( 4d)     0.00018       3.32160
    52    C    2  dx2y2  Ryd( 3d)     0.00129       1.68843
    53    C    2  dx2y2  Ryd( 4d)     0.00032       3.36093
    54    C    2  dz2    Ryd( 3d)     0.00064       1.44352
    55    C    2  dz2    Ryd( 4d)     0.00010       3.08314
    56    C    2  f(0)   Ryd( 4f)     0.00018       3.54301
    57    C    2  f(C1)  Ryd( 4f)     0.00008       3.56798
    58    C    2  f(S1)  Ryd( 4f)     0.00022       3.35131
    59    C    2  f(C2)  Ryd( 4f)     0.00015       3.62204
    60    C    2  f(S2)  Ryd( 4f)     0.00014       3.78502
    61    C    2  f(C3)  Ryd( 4f)     0.00011       3.93933
    62    C    2  f(S3)  Ryd( 4f)     0.00006       3.78320
 
    63    C    3  S      Cor( 1S)     1.99924     -10.39661
    64    C    3  S      Val( 2S)     0.97667      -0.24873
    65    C    3  S      Ryd( 3S)     0.00095       1.07425
    66    C    3  S      Ryd( 4S)     0.00015       1.42023
    67    C    3  S      Ryd( 5S)     0.00000      21.58440
    68    C    3  px     Val( 2p)     1.07563      -0.07803
    69    C    3  px     Ryd( 3p)     0.00386       1.04480
    70    C    3  px     Ryd( 4p)     0.00026       2.17364
    71    C    3  py     Val( 2p)     1.08819      -0.10032
    72    C    3  py     Ryd( 3p)     0.00335       0.99050
    73    C    3  py     Ryd( 4p)     0.00022       1.83132
    74    C    3  pz     Val( 2p)     1.04405      -0.11300
    75    C    3  pz     Ryd( 3p)     0.00246       0.86114
    76    C    3  pz     Ryd( 4p)     0.00028       1.61554
    77    C    3  dxy    Ryd( 3d)     0.00090       1.70163
    78    C    3  dxy    Ryd( 4d)     0.00053       3.34052
    79    C    3  dxz    Ryd( 3d)     0.00056       1.55623
    80    C    3  dxz    Ryd( 4d)     0.00038       3.16715
    81    C    3  dyz    Ryd( 3d)     0.00098       1.57113
    82    C    3  dyz    Ryd( 4d)     0.00024       3.26560
    83    C    3  dx2y2  Ryd( 3d)     0.00146       1.61720
    84    C    3  dx2y2  Ryd( 4d)     0.00040       3.31497
    85    C    3  dz2    Ryd( 3d)     0.00050       1.40933
    86    C    3  dz2    Ryd( 4d)     0.00012       3.03622
    87    C    3  f(0)   Ryd( 4f)     0.00017       3.49419
    88    C    3  f(C1)  Ryd( 4f)     0.00007       3.56381
    89    C    3  f(S1)  Ryd( 4f)     0.00014       3.33363
    90    C    3  f(C2)  Ryd( 4f)     0.00013       3.62541
    91    C    3  f(S2)  Ryd( 4f)     0.00011       3.76011
    92    C    3  f(C3)  Ryd( 4f)     0.00007       3.93509
    93    C    3  f(S3)  Ryd( 4f)     0.00007       3.73563
 
    94    C    4  S      Cor( 1S)     1.99924     -10.39533
    95    C    4  S      Val( 2S)     0.97802      -0.24931
    96    C    4  S      Ryd( 3S)     0.00091       1.09465
    97    C    4  S      Ryd( 4S)     0.00014       1.36676
    98    C    4  S      Ryd( 5S)     0.00000      21.63684
    99    C    4  px     Val( 2p)     1.17169      -0.08462
   100    C    4  px     Ryd( 3p)     0.00460       1.18344
   101    C    4  px     Ryd( 4p)     0.00015       2.08434
   102    C    4  py     Val( 2p)     1.02772      -0.09410
   103    C    4  py     Ryd( 3p)     0.00287       0.88587
   104    C    4  py     Ryd( 4p)     0.00034       1.93101
   105    C    4  pz     Val( 2p)     1.00908      -0.10957
   106    C    4  pz     Ryd( 3p)     0.00226       0.79472
   107    C    4  pz     Ryd( 4p)     0.00036       1.65476
   108    C    4  dxy    Ryd( 3d)     0.00138       1.59840
   109    C    4  dxy    Ryd( 4d)     0.00037       3.11653
   110    C    4  dxz    Ryd( 3d)     0.00090       1.48067
   111    C    4  dxz    Ryd( 4d)     0.00023       2.96046
   112    C    4  dyz    Ryd( 3d)     0.00091       1.71951
   113    C    4  dyz    Ryd( 4d)     0.00013       3.39503
   114    C    4  dx2y2  Ryd( 3d)     0.00071       1.82671
   115    C    4  dx2y2  Ryd( 4d)     0.00062       3.32020
   116    C    4  dz2    Ryd( 3d)     0.00026       1.54144
   117    C    4  dz2    Ryd( 4d)     0.00028       3.02446
   118    C    4  f(0)   Ryd( 4f)     0.00008       3.49769
   119    C    4  f(C1)  Ryd( 4f)     0.00008       3.52230
   120    C    4  f(S1)  Ryd( 4f)     0.00017       3.47432
   121    C    4  f(C2)  Ryd( 4f)     0.00013       3.54787
   122    C    4  f(S2)  Ryd( 4f)     0.00019       3.84219
   123    C    4  f(C3)  Ryd( 4f)     0.00006       3.87662
   124    C    4  f(S3)  Ryd( 4f)     0.00004       3.64467
 
   125    C    5  S      Cor( 1S)     1.99924     -10.39665
   126    C    5  S      Val( 2S)     0.97672      -0.24878
   127    C    5  S      Ryd( 3S)     0.00095       1.07415
   128    C    5  S      Ryd( 4S)     0.00015       1.42034
   129    C    5  S      Ryd( 5S)     0.00000      21.58458
   130    C    5  px     Val( 2p)     1.07560      -0.07803
   131    C    5  px     Ryd( 3p)     0.00386       1.04474
   132    C    5  px     Ryd( 4p)     0.00026       2.17342
   133    C    5  py     Val( 2p)     1.08816      -0.10031
   134    C    5  py     Ryd( 3p)     0.00335       0.99046
   135    C    5  py     Ryd( 4p)     0.00022       1.83132
   136    C    5  pz     Val( 2p)     1.04403      -0.11300
   137    C    5  pz     Ryd( 3p)     0.00246       0.86109
   138    C    5  pz     Ryd( 4p)     0.00028       1.61552
   139    C    5  dxy    Ryd( 3d)     0.00090       1.70169
   140    C    5  dxy    Ryd( 4d)     0.00053       3.34037
   141    C    5  dxz    Ryd( 3d)     0.00056       1.55626
   142    C    5  dxz    Ryd( 4d)     0.00038       3.16693
   143    C    5  dyz    Ryd( 3d)     0.00098       1.57124
   144    C    5  dyz    Ryd( 4d)     0.00024       3.26553
   145    C    5  dx2y2  Ryd( 3d)     0.00146       1.61726
   146    C    5  dx2y2  Ryd( 4d)     0.00040       3.31481
   147    C    5  dz2    Ryd( 3d)     0.00050       1.40941
   148    C    5  dz2    Ryd( 4d)     0.00012       3.03602
   149    C    5  f(0)   Ryd( 4f)     0.00017       3.49413
   150    C    5  f(C1)  Ryd( 4f)     0.00007       3.56364
   151    C    5  f(S1)  Ryd( 4f)     0.00014       3.33362
   152    C    5  f(C2)  Ryd( 4f)     0.00013       3.62539
   153    C    5  f(S2)  Ryd( 4f)     0.00011       3.75991
   154    C    5  f(C3)  Ryd( 4f)     0.00007       3.93489
   155    C    5  f(S3)  Ryd( 4f)     0.00007       3.73560
 
   156    C    6  S      Cor( 1S)     1.99916     -10.39827
   157    C    6  S      Val( 2S)     0.96983      -0.24416
   158    C    6  S      Ryd( 3S)     0.00102       1.32944
   159    C    6  S      Ryd( 4S)     0.00018       1.49124
   160    C    6  S      Ryd( 5S)     0.00001      21.37576
   161    C    6  px     Val( 2p)     1.08077      -0.08389
   162    C    6  px     Ryd( 3p)     0.00308       1.14552
   163    C    6  px     Ryd( 4p)     0.00018       2.41743
   164    C    6  py     Val( 2p)     1.07978      -0.09959
   165    C    6  py     Ryd( 3p)     0.00318       0.93231
   166    C    6  py     Ryd( 4p)     0.00029       2.20598
   167    C    6  pz     Val( 2p)     1.04604      -0.11292
   168    C    6  pz     Ryd( 3p)     0.00221       0.81099
   169    C    6  pz     Ryd( 4p)     0.00032       1.86942
   170    C    6  dxy    Ryd( 3d)     0.00129       1.65487
   171    C    6  dxy    Ryd( 4d)     0.00055       3.35922
   172    C    6  dxz    Ryd( 3d)     0.00080       1.54794
   173    C    6  dxz    Ryd( 4d)     0.00040       3.21044
   174    C    6  dyz    Ryd( 3d)     0.00100       1.59867
   175    C    6  dyz    Ryd( 4d)     0.00018       3.32162
   176    C    6  dx2y2  Ryd( 3d)     0.00129       1.68840
   177    C    6  dx2y2  Ryd( 4d)     0.00032       3.36096
   178    C    6  dz2    Ryd( 3d)     0.00064       1.44349
   179    C    6  dz2    Ryd( 4d)     0.00010       3.08319
   180    C    6  f(0)   Ryd( 4f)     0.00018       3.54299
   181    C    6  f(C1)  Ryd( 4f)     0.00008       3.56789
   182    C    6  f(S1)  Ryd( 4f)     0.00022       3.35128
   183    C    6  f(C2)  Ryd( 4f)     0.00015       3.62202
   184    C    6  f(S2)  Ryd( 4f)     0.00014       3.78498
   185    C    6  f(C3)  Ryd( 4f)     0.00011       3.93925
   186    C    6  f(S3)  Ryd( 4f)     0.00006       3.78316
 
   187    H    7  S      Val( 1S)     0.78259       0.03695
   188    H    7  S      Ryd( 2S)     0.00048       1.39257
   189    H    7  S      Ryd( 3S)     0.00013       1.53464
   190    H    7  px     Ryd( 2p)     0.00018       2.85257
   191    H    7  py     Ryd( 2p)     0.00025       2.69486
   192    H    7  pz     Ryd( 2p)     0.00019       2.48489
 
   193    H    8  S      Val( 1S)     0.78107       0.04017
   194    H    8  S      Ryd( 2S)     0.00034       1.03739
   195    H    8  S      Ryd( 3S)     0.00018       1.71855
   196    H    8  px     Ryd( 2p)     0.00014       2.83841
   197    H    8  py     Ryd( 2p)     0.00023       2.67822
   198    H    8  pz     Ryd( 2p)     0.00015       2.45343
 
   199    H    9  S      Val( 1S)     0.78356       0.04104
   200    H    9  S      Ryd( 2S)     0.00032       0.96566
   201    H    9  S      Ryd( 3S)     0.00018       1.80509
   202    H    9  px     Ryd( 2p)     0.00042       3.01852
   203    H    9  py     Ryd( 2p)     0.00005       2.56098
   204    H    9  pz     Ryd( 2p)     0.00006       2.38508
 
   205    H   10  S      Val( 1S)     0.78107       0.04021
   206    H   10  S      Ryd( 2S)     0.00034       1.03715
   207    H   10  S      Ryd( 3S)     0.00018       1.71879
   208    H   10  px     Ryd( 2p)     0.00014       2.83838
   209    H   10  py     Ryd( 2p)     0.00023       2.67829
   210    H   10  pz     Ryd( 2p)     0.00015       2.45348
 
   211    H   11  S      Val( 1S)     0.78258       0.03691
   212    H   11  S      Ryd( 2S)     0.00048       1.39246
   213    H   11  S      Ryd( 3S)     0.00013       1.53473
   214    H   11  px     Ryd( 2p)     0.00018       2.85245
   215    H   11  py     Ryd( 2p)     0.00025       2.69474
   216    H   11  pz     Ryd( 2p)     0.00019       2.48475
 
   217    C   12  S      Cor( 1S)     1.99911     -10.42099
   218    C   12  S      Val( 2S)     0.97083      -0.26499
   219    C   12  S      Ryd( 3S)     0.00123       1.37168
   220    C   12  S      Ryd( 4S)     0.00016       1.57925
   221    C   12  S      Ryd( 5S)     0.00000      21.42021
   222    C   12  px     Val( 2p)     1.18212      -0.10984
   223    C   12  px     Ryd( 3p)     0.00412       1.18291
   224    C   12  px     Ryd( 4p)     0.00020       2.50519
   225    C   12  py     Val( 2p)     1.03406      -0.09824
   226    C   12  py     Ryd( 3p)     0.00242       1.08912
   227    C   12  py     Ryd( 4p)     0.00032       2.62819
   228    C   12  pz     Val( 2p)     0.96834      -0.14774
   229    C   12  pz     Ryd( 3p)     0.00133       0.64958
   230    C   12  pz     Ryd( 4p)     0.00052       1.47890
   231    C   12  dxy    Ryd( 3d)     0.00180       1.71493
   232    C   12  dxy    Ryd( 4d)     0.00036       3.43152
   233    C   12  dxz    Ryd( 3d)     0.00036       1.29764
   234    C   12  dxz    Ryd( 4d)     0.00008       2.81636
   235    C   12  dyz    Ryd( 3d)     0.00010       1.40938
   236    C   12  dyz    Ryd( 4d)     0.00024       3.02261
   237    C   12  dx2y2  Ryd( 3d)     0.00115       1.98418
   238    C   12  dx2y2  Ryd( 4d)     0.00089       3.64851
   239    C   12  dz2    Ryd( 3d)     0.00087       1.57566
   240    C   12  dz2    Ryd( 4d)     0.00004       3.36227
   241    C   12  f(0)   Ryd( 4f)     0.00023       3.28706
   242    C   12  f(C1)  Ryd( 4f)     0.00025       3.42859
   243    C   12  f(S1)  Ryd( 4f)     0.00013       3.61697
   244    C   12  f(C2)  Ryd( 4f)     0.00002       3.34825
   245    C   12  f(S2)  Ryd( 4f)     0.00002       3.45195
   246    C   12  f(C3)  Ryd( 4f)     0.00009       4.34233
   247    C   12  f(S3)  Ryd( 4f)     0.00007       3.98841
 
   248    C   13  S      Cor( 1S)     1.99901     -10.43578
   249    C   13  S      Val( 2S)     0.95175      -0.27200
   250    C   13  S      Ryd( 3S)     0.00120       1.44105
   251    C   13  S      Ryd( 4S)     0.00013       1.66690
   252    C   13  S      Ryd( 5S)     0.00000      21.34379
   253    C   13  px     Val( 2p)     1.07292      -0.11854
   254    C   13  px     Ryd( 3p)     0.00401       1.25654
   255    C   13  px     Ryd( 4p)     0.00020       2.13879
   256    C   13  py     Val( 2p)     1.03965      -0.12118
   257    C   13  py     Ryd( 3p)     0.00448       1.24646
   258    C   13  py     Ryd( 4p)     0.00031       2.20193
   259    C   13  pz     Val( 2p)     1.04347      -0.15861
   260    C   13  pz     Ryd( 3p)     0.00150       0.82723
   261    C   13  pz     Ryd( 4p)     0.00061       1.37889
   262    C   13  dxy    Ryd( 3d)     0.00298       1.71853
   263    C   13  dxy    Ryd( 4d)     0.00069       3.66614
   264    C   13  dxz    Ryd( 3d)     0.00057       1.08002
   265    C   13  dxz    Ryd( 4d)     0.00029       3.27852
   266    C   13  dyz    Ryd( 3d)     0.00088       1.11193
   267    C   13  dyz    Ryd( 4d)     0.00022       3.29377
   268    C   13  dx2y2  Ryd( 3d)     0.00267       1.64077
   269    C   13  dx2y2  Ryd( 4d)     0.00065       3.62081
   270    C   13  dz2    Ryd( 3d)     0.00131       1.47512
   271    C   13  dz2    Ryd( 4d)     0.00015       3.53378
   272    C   13  f(0)   Ryd( 4f)     0.00030       3.35529
   273    C   13  f(C1)  Ryd( 4f)     0.00020       3.60317
   274    C   13  f(S1)  Ryd( 4f)     0.00030       3.49647
   275    C   13  f(C2)  Ryd( 4f)     0.00003       3.47307
   276    C   13  f(S2)  Ryd( 4f)     0.00005       3.42564
   277    C   13  f(C3)  Ryd( 4f)     0.00016       4.40356
   278    C   13  f(S3)  Ryd( 4f)     0.00005       4.22038
 
   279    C   14  S      Cor( 1S)     1.99910     -10.41740
   280    C   14  S      Val( 2S)     0.96833      -0.25875
   281    C   14  S      Ryd( 3S)     0.00103       1.44522
   282    C   14  S      Ryd( 4S)     0.00017       1.46044
   283    C   14  S      Ryd( 5S)     0.00001      21.42125
   284    C   14  px     Val( 2p)     1.06524      -0.09716
   285    C   14  px     Ryd( 3p)     0.00274       1.12907
   286    C   14  px     Ryd( 4p)     0.00019       2.65901
   287    C   14  py     Val( 2p)     1.14579      -0.10164
   288    C   14  py     Ryd( 3p)     0.00363       1.13007
   289    C   14  py     Ryd( 4p)     0.00022       2.84187
   290    C   14  pz     Val( 2p)     0.96372      -0.14500
   291    C   14  pz     Ryd( 3p)     0.00117       0.64385
   292    C   14  pz     Ryd( 4p)     0.00041       1.56272
   293    C   14  dxy    Ryd( 3d)     0.00174       1.86967
   294    C   14  dxy    Ryd( 4d)     0.00068       3.61627
   295    C   14  dxz    Ryd( 3d)     0.00017       1.40462
   296    C   14  dxz    Ryd( 4d)     0.00019       2.99479
   297    C   14  dyz    Ryd( 3d)     0.00039       1.35369
   298    C   14  dyz    Ryd( 4d)     0.00009       2.88644
   299    C   14  dx2y2  Ryd( 3d)     0.00185       1.81365
   300    C   14  dx2y2  Ryd( 4d)     0.00047       3.50444
   301    C   14  dz2    Ryd( 3d)     0.00111       1.57411
   302    C   14  dz2    Ryd( 4d)     0.00003       3.37374
   303    C   14  f(0)   Ryd( 4f)     0.00028       3.29305
   304    C   14  f(C1)  Ryd( 4f)     0.00017       3.56326
   305    C   14  f(S1)  Ryd( 4f)     0.00027       3.51524
   306    C   14  f(C2)  Ryd( 4f)     0.00002       3.44231
   307    C   14  f(S2)  Ryd( 4f)     0.00004       3.40697
   308    C   14  f(C3)  Ryd( 4f)     0.00013       4.34817
   309    C   14  f(S3)  Ryd( 4f)     0.00007       4.01511
 
   310    C   15  S      Cor( 1S)     1.99912     -10.42310
   311    C   15  S      Val( 2S)     0.91025      -0.23051
   312    C   15  S      Ryd( 3S)     0.00084       1.43492
   313    C   15  S      Ryd( 4S)     0.00015       1.79195
   314    C   15  S      Ryd( 5S)     0.00000      21.25364
   315    C   15  px     Val( 2p)     1.04984      -0.08671
   316    C   15  px     Ryd( 3p)     0.00563       1.24338
   317    C   15  px     Ryd( 4p)     0.00059       1.83595
   318    C   15  py     Val( 2p)     1.06746      -0.09844
   319    C   15  py     Ryd( 3p)     0.00393       1.14390
   320    C   15  py     Ryd( 4p)     0.00049       1.55038
   321    C   15  pz     Val( 2p)     0.99000      -0.13879
   322    C   15  pz     Ryd( 3p)     0.00220       0.78721
   323    C   15  pz     Ryd( 4p)     0.00010       1.30285
   324    C   15  dxy    Ryd( 3d)     0.00141       2.40410
   325    C   15  dxy    Ryd( 4d)     0.00054       3.49937
   326    C   15  dxz    Ryd( 3d)     0.00038       1.26056
   327    C   15  dxz    Ryd( 4d)     0.00026       3.34193
   328    C   15  dyz    Ryd( 3d)     0.00005       1.23250
   329    C   15  dyz    Ryd( 4d)     0.00035       3.32781
   330    C   15  dx2y2  Ryd( 3d)     0.00156       2.39928
   331    C   15  dx2y2  Ryd( 4d)     0.00059       3.50295
[...]
 8,-0.00000333,-0.00003383,0.00001013,0.00000032,-0.00001350,-0.0000342
 5,0.00000599,0.00000915,-0.00002663,0.00000103,0.00001119,0.00003691,-
 0.00004456,-0.00001108,-0.00000971,-0.00000469,-0.00001279,0.00000038,
 0.00000030,-0.00001124,0.00000613,-0.00000221,0.00001747,-0.00001806,0
 .00000768,-0.00186023,-0.00129633,0.00102284,0.01107455,0.00498817,0.0
 1505684,-0.00029991,-0.00023217,-0.00002383,0.00101744,-0.00088409,-0.
 00063796,0.00087260,0.00080214,0.00029438,-0.00070174,0.00145482,0.000
 07229,0.00026525,0.00009262,-0.00037837,0.00005243,0.00001696,-0.00000
 142,0.00006297,0.00036110,0.00036916,-0.07797349,0.00178170,-0.0141742
 3,0.08650378,-0.00030311,-0.00013096,0.00001468,0.00017868,-0.00007369
 ,-0.00000282,0.00001230,0.00000399,0.00002370,0.00009933,0.00001258,-0
 .00000462,-0.00000159,0.00005526,-0.00001118,0.00016484,0.00003404,0.0
 0000472,-0.00001294,-0.00006066,-0.00001962,0.00004496,0.00001674,-0.0
 0001785,0.00001818,0.00000471,-0.00000939,0.00002730,-0.00000971,-0.00
 000476,-0.00005439,0.00006847,-0.00003363,0.00115404,0.00105345,-0.000
 00372,0.00128180,0.00431090,-0.02878165,-0.00146381,-0.00092789,-0.001
 17348,-0.00005925,-0.00086698,0.00090753,0.00030729,-0.00036192,-0.000
 32865,0.00073133,-0.00056853,0.00099213,0.00046985,0.00016938,-0.00052
 370,-0.00003245,0.00010294,-0.00010512,-0.00015902,0.00018160,-0.00046
 625,0.00183238,-0.07772602,-0.01647801,0.00045517,0.07731545,-0.000426
 15,-0.00023981,-0.00005278,0.00016196,0.00007895,-0.00002811,0.0000618
 6,-0.00006987,0.00007539,0.00017811,0.00003140,-0.00000687,0.00002677,
 0.00003727,0.00002442,0.00030548,0.00008331,0.00004019,-0.00008702,-0.
 00010228,-0.00001966,0.00003991,0.00002779,-0.00003755,0.00003876,-0.0
 0000525,-0.00002581,0.00005862,-0.00002864,-0.00002329,-0.00008356,0.0
 0004969,-0.00009826,0.00385612,0.00041362,-0.00147186,-0.00260224,-0.0
 0787387,-0.04105076,-0.00190569,-0.00216524,-0.00003955,0.00014278,-0.
 00112381,0.00121013,0.00008771,-0.00054079,-0.00061946,0.00082887,-0.0
 0205022,0.00087098,0.00037738,0.00090644,-0.00123092,-0.00001626,0.000
 13460,-0.00020470,-0.00028176,0.00076208,-0.00096641,-0.01291243,-0.01
 583304,-0.28025923,0.05236546,-0.01485000,0.40682416,0.00002256,-0.000
 05076,-0.00004930,0.00004674,-0.00009105,0.00008488,-0.00000184,0.0000
 7729,-0.00000502,-0.00002149,0.00000269,0.00000027,-0.00002261,0.00000
 901,-0.00000125,-0.00000714,-0.00002672,0.00000714,0.00006005,0.000027
 37,-0.00009686,0.00000742,-0.00000891,-0.00000730,-0.00001612,0.000006
 83,-0.00000169,-0.00001276,0.00000848,-0.00000203,0.00000330,0.0000125
 3,0.00000331,-0.00193042,0.00035951,-0.00004004,0.01081038,0.01077769,
 0.00008710,-0.00218239,0.00046698,-0.00052695,0.00125436,-0.00005413,-
 0.00075220,0.00039313,0.00044295,0.00023660,0.00032791,0.00103590,0.00
 059508,0.00064215,0.00108783,0.00069304,0.00008212,0.00006247,0.000070
 95,0.00009614,0.00057628,0.00020833,-0.08739396,-0.03969229,0.01267789
 ,0.01306711,-0.00319492,0.00603730,0.11017729,-0.00052820,-0.00019803,
 0.00004973,0.00044778,-0.00034564,0.00004100,0.00000135,0.00007478,0.0
 0003103,0.00019091,0.00001868,-0.00000989,-0.00001608,0.00011093,-0.00
 005056,0.00027085,0.00012930,0.00003483,0.00000034,-0.00011091,-0.0000
 6563,0.00010943,0.00002819,-0.00003340,0.00002212,0.00001591,-0.000011
 01,0.00004647,-0.00001003,-0.00001018,-0.00010338,0.00012638,-0.000039
 36,0.00720272,-0.00281591,-0.00060598,-0.01311071,-0.04841907,0.010583
 26,-0.00306710,-0.00092022,-0.00114951,-0.00041436,0.00036075,-0.00088
 178,0.00029740,-0.00070617,0.00006603,-0.00088321,-0.00098582,-0.00220
 164,0.00186342,-0.00092121,0.00078055,0.00009140,0.00001338,0.00012931
 ,0.00004720,0.00026180,0.00096734,-0.03366918,-0.26724387,0.04278807,-
 0.00436381,-0.01541908,0.04428464,0.08920630,0.35488621,-0.00003935,0.
 00001806,0.00001613,-0.00003575,0.00008818,-0.00000772,0.00002796,-0.0
 0005172,0.00002512,0.00003175,0.00001151,-0.00000224,0.00000769,-0.000
 00484,0.00001170,0.00002690,0.00000883,0.00002151,-0.00006958,-0.00002
 275,-0.00000120,-0.00000453,0.00000608,-0.00000924,0.00001259,-0.00000
 548,-0.00000686,0.00001170,-0.00000925,-0.00000687,-0.00001400,-0.0000
 0556,-0.00002412,0.00053704,0.00066417,0.00094591,-0.00008625,-0.01059
 557,0.00996002,0.00085456,-0.00113558,0.00029173,-0.00055981,0.0005716
 2,0.00012549,-0.00049871,-0.00058100,-0.00014390,0.00069276,-0.0001966
 8,-0.00099176,0.00001102,-0.00015293,-0.00035162,-0.00002948,-0.000014
 52,0.00002070,-0.00006141,-0.00017716,0.00018038,0.01159156,0.04476516
 ,-0.08630652,0.01052092,0.06174124,-0.05039459,-0.03058693,-0.09811193
 ,0.11456862,0.00026695,0.00076413,0.00031865,-0.00009285,-0.00003009,0
 .00008696,0.00001097,0.00008862,-0.00000489,-0.00011556,0.00000364,0.0
 0001385,-0.00004327,0.00002237,-0.00003668,-0.00030727,-0.00018512,0.0
 0005350,0.00007427,0.00008409,-0.00012666,-0.00003206,-0.00003095,-0.0
 0000539,-0.00004137,0.00000136,-0.00000196,-0.00006449,0.00001723,-0.0
 0000295,0.00005821,-0.00002671,0.00001793,-0.00197847,-0.00404307,-0.0
 0098219,-0.04439701,-0.00130868,-0.00507549,-0.00038987,0.00802466,0.0
 0335520,-0.00136276,-0.00134288,0.00034708,0.00001409,0.00040539,0.000
 03767,0.00046989,0.00096052,0.00073034,0.00074269,-0.00015165,-0.00038
 564,0.00016618,0.00011979,-0.00002989,0.00046988,0.00234321,0.00047965
 ,-0.29115577,0.01289061,-0.01467305,-0.03184013,-0.00161613,-0.0467004
 6,-0.04523156,-0.04422360,0.00761283,0.41506122,-0.00018374,-0.0003982
 0,-0.00009268,0.00017238,-0.00012220,0.00000325,0.00000866,0.00001274,
 0.00002699,0.00009703,0.00000798,-0.00000823,0.00001217,0.00001778,-0.
 00000117,0.00022195,0.00012417,-0.00000892,-0.00001615,-0.00004325,-0.
 00001526,0.00004460,0.00001618,-0.00001401,0.00001473,0.00000441,-0.00
 000615,0.00003539,-0.00000733,-0.00000547,-0.00004398,0.00003930,-0.00
 002072,0.00030062,-0.00234098,-0.00070896,0.02695201,0.00716215,0.0004
 5754,-0.00009069,-0.00407133,-0.00243174,0.00130694,0.00022358,-0.0002
 3144,0.00066620,-0.00000572,-0.00011006,0.00052381,0.00093226,0.000440
 43,0.00036156,0.00004812,0.00016536,0.00010319,0.00000980,-0.00000486,
 0.00252559,-0.00116441,-0.00058923,0.00383361,-0.08186091,-0.00388597,
 -0.00322370,0.01285631,-0.00165768,-0.06099216,-0.01776549,0.00309080,
 0.02737092,0.08623765,-0.00012289,-0.00007795,-0.00016608,0.00007203,-
 0.00001709,0.00001833,0.00002029,-0.00001215,0.00002660,0.00006279,0.0
 0001329,-0.00000717,-0.00000114,0.00001231,0.00000645,0.00008572,0.000
 05119,0.00002460,-0.00002916,-0.00002376,-0.00001527,0.00001613,0.0000
 0841,-0.00001274,0.00000999,-0.00000005,-0.00000552,0.00001835,-0.0000
 0813,-0.00000756,-0.00002893,0.00000970,-0.00002061,0.00028512,-0.0016
 6131,-0.00050155,0.01495477,-0.00189417,0.00928360,-0.00030941,-0.0023
 3436,0.00041759,0.00045483,-0.00016776,-0.00094073,0.00070182,0.000128
 86,-0.00000252,-0.00001465,0.00061663,0.00032818,0.00010383,0.00011096
 ,0.00007527,0.00004075,0.00003001,-0.00002740,0.00105259,-0.00034591,-
 0.00057004,-0.01909899,-0.00303307,-0.07782903,-0.06443967,-0.00090998
 ,-0.03256172,0.01122306,0.00389379,0.01220789,0.05494483,0.00555194,0.
 09021699,-0.00030522,-0.00088414,-0.00013870,-0.00010454,-0.00003268,-
 0.00004431,0.00007167,-0.00007907,0.00002801,0.00014504,0.00004497,-0.
 00003345,-0.00006934,0.00025651,0.00000459,0.00013148,-0.00023604,0.00
 026319,-0.00005331,-0.00005237,0.00005481,0.00003602,0.00004850,-0.000
 00947,0.00006609,0.00002909,-0.00001805,0.00000918,-0.00004196,-0.0000
 1476,-0.00025152,0.00015894,-0.00025269,0.01838658,0.00680266,0.002837
 73,-0.00111322,0.00687163,0.00451392,-0.00292185,0.00237675,0.00142098
 ,-0.00653755,-0.00182913,0.00106840,-0.01169760,-0.02613235,-0.0129693
 7,-0.11895085,-0.04693279,-0.01837142,-0.00034257,0.00010852,-0.000040
 17,-0.00205721,-0.00038809,-0.00009387,-0.00176884,0.00332310,0.001189
 38,0.00564833,-0.00120777,-0.00156105,-0.00097923,0.00060146,0.0012384
 9,-0.00089423,0.00130178,0.00043662,-0.00243213,0.00015156,0.00008455,
 0.58520441,-0.00137031,0.00080838,0.00028200,0.00091754,-0.00014296,-0
 .00020472,0.00006595,-0.00020595,0.00006743,0.00047348,0.00005118,-0.0
 0006904,0.00000888,-0.00004943,-0.00008766,0.00076735,0.00067800,-0.00
 016306,-0.00015988,-0.00033961,0.00016171,0.00013693,0.00006803,-0.000
 01075,0.00008778,-0.00001223,0.00000890,0.00024597,-0.00003413,0.00002
 038,-0.00006912,0.00025642,0.00006099,-0.00545269,-0.01947726,-0.01036
 472,0.00206389,0.00072195,-0.00333395,0.00278402,0.00094119,0.00026991
 ,0.00114143,0.00456843,-0.00107143,-0.01294397,0.00080037,0.00372185,-
 0.04525531,-0.17139715,-0.04786582,0.00005586,-0.00031095,0.00025797,0
 .00304728,-0.00004602,0.00021378,-0.00031255,0.00013719,0.00151159,0.0
 0238003,-0.00332765,-0.00306623,-0.00045788,0.00075950,0.00172656,-0.0
 0049494,0.00158902,0.00048428,-0.00128640,0.00089046,0.00059843,0.0302
 5224,0.60002527,-0.00054156,0.00041102,0.00041816,0.00042265,-0.000099
 35,-0.00024432,-0.00000992,0.00000826,-0.00002332,0.00026798,-0.000015
 34,-0.00003387,0.00006453,0.00009313,-0.00010640,0.00015897,-0.0000173
 1,-0.00016436,-0.00009411,-0.00005859,0.00013099,0.00008332,0.00005531
 ,0.00002681,0.00005213,0.00001360,0.00001434,0.00007193,-0.00002339,0.
 00005043,-0.00020682,0.00006228,0.00011257,-0.00565870,-0.01034220,-0.
 00282189,0.00236737,-0.00353999,0.00454066,0.00192304,0.00075177,-0.00
 090564,0.00270703,-0.00013546,0.00640780,-0.00389548,0.00477212,0.0034
 4660,-0.01561545,-0.04528026,-0.09193984,-0.00002364,0.00023401,-0.000
 62727,0.00111041,0.00095198,-0.00184678,-0.00017018,0.00056040,-0.0025
 7797,0.00090794,-0.00244922,0.00011327,-0.00033959,0.00050506,0.000346
 23,-0.00000497,0.00082402,-0.00019477,-0.00052922,0.00062489,0.0000723
 3,0.00277583,0.03240265,0.53738128,0.00007982,0.00006709,-0.00006820,-
 0.00002776,0.00003139,0.00001183,-0.00002346,0.00002600,0.00000582,-0.
 00004754,-0.00001509,0.00000956,0.00001503,-0.00004117,0.00001224,-0.0
 0006430,-0.00000330,-0.00004423,0.00001559,0.00001844,-0.00002546,-0.0
 0001550,-0.00001316,0.00000171,-0.00001652,-0.00000557,-0.00000033,-0.
 00001219,0.00000973,0.00000249,0.00004253,-0.00003842,0.00003515,-0.00
 274870,0.00063580,-0.00074612,-0.00036952,-0.00181649,0.00003600,0.000
 92469,-0.00063886,-0.00053836,0.00089301,0.00095748,0.00049775,-0.0001
 0622,-0.00007571,0.00026652,0.00871047,-0.00528588,-0.01960435,0.00004
 279,0.00000079,-0.00003058,0.00028537,0.00011973,0.00014992,0.00003111
 ,-0.00021192,-0.00047840,-0.00109981,0.00044147,0.00053179,0.00016677,
 -0.00013718,-0.00023105,0.00019726,-0.00041326,-0.00012109,0.00050402,
 -0.00009294,-0.00002933,-0.07930937,-0.00486601,-0.02526086,0.08040955
 ,0.00033143,-0.00005573,-0.00006232,-0.00016600,0.00000801,0.00004027,
 -0.00001554,0.00005986,-0.00000979,-0.00010625,-0.00000966,0.00001779,
 -0.00000424,-0.00000440,0.00002691,-0.00017012,-0.00010988,0.00002443,
 0.00003492,0.00008065,-0.00004626,-0.00002774,-0.00001686,0.00000136,-
 0.00002307,0.00000019,-0.00000512,-0.00005231,0.00000923,-0.00000689,0
 .00002658,-0.00006441,-0.00001576,-0.00179058,0.00096383,0.00012675,-0
 .00046482,-0.00100344,0.00111810,-0.00011520,-0.00054255,-0.00036404,0
 .00058606,-0.00062545,0.00094802,0.00129666,-0.00064754,-0.00143456,-0
 .00633574,0.00260411,-0.03135298,-0.00000072,0.00010453,-0.00011137,-0
 .00052981,0.00007513,-0.00036700,0.00002998,0.00014470,-0.00056841,-0.
 00081573,0.00071047,0.00073751,0.00012823,-0.00017465,-0.00039141,0.00
 016929,-0.00044797,-0.00013814,0.00037893,-0.00018321,-0.00011629,-0.0
 0502364,-0.07901859,-0.01683297,-0.00339347,0.07662921,0.00042985,-0.0
 0017226,-0.00013200,-0.00029822,0.00001844,0.00010303,-0.00002299,0.00
 002601,0.00002983,-0.00017012,0.00000018,0.00002900,-0.00003425,-0.000
 07171,0.00008399,-0.00016316,0.00005018,0.00001653,0.00004762,0.000058
 52,-0.00010855,-0.00005307,-0.00003745,-0.00001190,-0.00003849,-0.0000
 1213,-0.00001754,-0.00004884,0.00001717,-0.00002899,0.00009151,-0.0000
 7673,-0.00004724,-0.00355733,-0.00051590,-0.00049365,-0.00014464,-0.00
 179606,0.00097391,-0.00030518,-0.00042632,-0.00049088,0.00013260,-0.00
 132037,0.00109292,0.00227705,-0.00177537,-0.00051364,-0.00630666,-0.00
 717112,-0.03697954,-0.00006239,0.00013175,-0.00019668,-0.00085535,0.00
 078460,-0.00115685,-0.00008247,0.00084138,-0.00089776,-0.00122769,0.00
 139210,0.00051564,0.00019367,-0.00032237,-0.00033641,0.00019166,-0.001
 00683,-0.00003363,0.00051606,-0.00037443,-0.00004373,-0.02662015,-0.01
 646337,-0.27762985,0.02053521,-0.01759796,0.41360351,-0.00007602,0.000
 07581,0.00005664,0.00003493,0.00001006,-0.00001680,-0.00001674,-0.0000
 3481,0.00001776,0.00000959,-0.00000200,-0.00000082,0.00001263,-0.00009
 854,0.00000353,0.00008040,0.00019225,-0.00011374,-0.00000612,-0.000039
 01,0.00000139,-0.00000356,-0.00000907,0.00000344,-0.00001082,-0.000013
 09,0.00000492,0.00002916,0.00001008,0.00000533,0.00009281,0.00000598,0
 .00008776,-0.00056427,0.00021346,0.00047134,0.00009064,-0.00083894,-0.
 00036883,0.00053747,-0.00030749,-0.00038268,0.00136125,0.00035328,0.00
 064064,-0.00248026,-0.00102439,0.00134629,0.00822146,-0.00179687,-0.00
 173225,0.00009232,-0.00004669,-0.00010884,0.00091630,-0.00071929,-0.00
 108450,0.00015906,-0.00061300,-0.00037482,-0.00076519,0.00013203,-0.00
 003694,0.00015067,-0.00007839,-0.00003033,0.00011480,-0.00000406,-0.00
 003036,0.00040522,0.00003416,0.00003958,-0.11540336,0.07788609,-0.0161
 7222,0.00051763,0.01972494,-0.02566575,0.17144503,0.00054959,-0.000080
 55,-0.00005468,-0.00027517,0.00007970,0.00009060,-0.00001963,0.0001062
 3,-0.00004835,-0.00018985,-0.00001874,0.00003054,-0.00000654,0.0000568
 1,0.00003277,-0.00034701,-0.00039550,0.00010594,0.00006703,0.00013792,
 -0.00005766,-0.00004613,-0.00002076,0.00000024,-0.00002893,0.00000898,
 -0.00000499,-0.00011380,0.00000822,-0.00000838,0.00002414,-0.00011098,
 -0.00004993,-0.00673197,-0.00419081,0.00092651,0.00062623,-0.00101897,
 -0.00245641,-0.00004613,-0.00081323,0.00004399,0.00040934,0.00047873,-
 0.00083278,0.00245761,-0.00052734,-0.00155380,0.02594498,-0.04583327,0
 .00626010,-0.00004728,-0.00001069,0.00012662,-0.00129855,-0.00140447,0
 .00094468,0.00013563,0.00015484,0.00090217,-0.00154645,0.00137308,0.00
 112248,0.00030565,-0.00040204,-0.00110454,0.00017290,-0.00088392,-0.00
 013523,0.00041286,-0.00035947,-0.00024983,0.07156329,-0.24543369,0.028
 60635,0.01734998,-0.01098859,0.03880144,-0.14411967,0.30918433,0.00004
 336,0.00001163,-0.00000265,-0.00002532,0.00000039,0.00002906,-0.000000
 20,-0.00000090,0.00001048,-0.00003200,0.00000608,0.00000419,-0.0000146
 7,-0.00003710,0.00002860,0.00000646,0.00006271,0.00000836,0.00000965,0
 .00000206,-0.00002632,-0.00000946,-0.00000935,-0.00000533,-0.00000987,
 -0.00000548,-0.00000522,-0.00000252,0.00000449,-0.00001105,0.00005234,
 -0.00000836,-0.00003386,-0.00019943,0.00062205,0.00095450,-0.00088304,
 -0.00015389,-0.00072137,0.00045894,-0.00040780,-0.00018119,0.00016918,
 0.00060027,-0.00009939,-0.00008312,-0.00107203,0.00019621,0.00197601,-
 0.00909859,0.00996313,0.00001758,0.00000163,0.00003458,-0.00022254,0.0
 0001778,-0.00014258,0.00009632,-0.00003583,0.00022456,-0.00037023,0.00
 034147,-0.00010771,0.00010042,-0.00009108,-0.00003313,0.00003309,-0.00
 011046,0.00002309,0.00017799,-0.00006406,0.00002076,-0.01536049,0.0294
 6544,-0.08010727,-0.03339955,0.05494914,-0.04227534,0.03994738,-0.0660
 4829,0.09900338,0.00029800,-0.00062143,-0.00038006,-0.00030016,0.00010
 960,0.00001561,-0.00002559,-0.00002854,0.00004356,-0.00010358,-0.00002
 250,0.00000878,0.00002575,-0.00008670,0.00000153,-0.00009427,0.0000324
 9,-0.00006284,0.00004392,0.00002960,-0.00002782,-0.00005295,-0.0000276
 6,0.00001412,-0.00003662,-0.00000946,0.00000990,-0.00002892,0.00002309
 ,0.00001095,0.00011103,-0.00005951,0.00010180,-0.00237823,0.00356730,0
 .00142458,0.00056716,-0.00086277,-0.00083492,0.00006013,-0.00035611,-0
 .00002158,-0.00143765,0.00096125,-0.00021060,0.00053849,-0.00739287,-0
 .00269540,-0.03748930,-0.00804603,0.01493868,0.00018972,-0.00007582,-0
 .00001404,0.00077251,0.00030757,0.00019287,0.00098529,-0.00193578,-0.0
 0064540,-0.00237197,0.00073553,0.00089961,0.00043063,-0.00026571,-0.00
 052862,0.00041179,-0.00030251,-0.00023866,0.00124098,-0.00009372,-0.00
 009683,-0.26450689,-0.04964565,0.05560961,-0.00899478,-0.00367206,0.04
 124152,-0.06494504,0.03479787,0.00752373,0.37709055,0.00029395,-0.0004
 8629,-0.00021036,-0.00030040,0.00010206,0.00004260,-0.00002069,0.00000
 955,0.00001025,-0.00011729,-0.00001542,0.00001403,0.00000006,-0.000005
 22,0.00002860,-0.00016163,-0.00014840,0.00002400,0.00003927,0.00005294
 ,-0.00003408,-0.00004445,-0.00001949,0.00000469,-0.00002357,-0.0000003
 8,-0.00000091,-0.00005501,0.00001175,-0.00000188,0.00004226,-0.0000518
 4,0.00000104,-0.00045950,-0.00167463,-0.00039995,-0.00048701,0.0006572
 4,0.00039657,-0.00064732,-0.00020685,0.00002319,-0.00164181,0.00016202
 ,0.00002470,0.00045218,-0.00551871,-0.00306456,-0.03480347,0.00047290,
 0.00897620,-0.00006533,-0.00002562,0.00001469,-0.00017342,0.00004050,0
 .00027801,-0.00215294,-0.00203547,-0.00019942,-0.00065333,0.00100759,0
 .00084856,0.00013161,-0.00022317,-0.00049988,0.00010358,-0.00042198,-0
 .00011160,0.00035696,-0.00026040,-0.00017368,-0.04105095,-0.09249979,0
 .00791724,-0.00260945,0.01250299,0.00701860,0.05110717,0.00090417,-0.0
 0894191,0.03294051,0.08766994,0.00003165,0.00008344,-0.00010902,-0.000
 01934,0.00000999,0.00003958,0.00000598,0.00001852,-0.00000299,-0.00004
 142,0.00000612,0.00000423,-0.00001732,0.00000286,0.00002975,-0.0000403
 5,-0.00003455,0.00004601,0.00001207,0.00000759,-0.00001993,-0.00000593
 ,-0.00000563,-0.00000691,-0.00000272,-0.00000009,-0.00000550,-0.000012
 91,-0.00000007,-0.00001144,0.00000566,-0.00000489,-0.00004347,0.000448
 06,-0.00245223,-0.00076798,-0.00014557,0.00079723,0.00050599,-0.000713
 72,0.00007275,0.00015242,-0.00027524,-0.00048217,-0.00080421,0.0007212
 3,-0.00059929,0.00093671,-0.00371452,-0.00291907,0.00906498,-0.0000903
 5,0.00003820,-0.00001551,-0.00026714,0.00002694,0.00005309,-0.00125033
 ,-0.00011210,-0.00021429,0.00033087,0.00040968,-0.00010501,-0.00005159
 ,-0.00005121,0.00006958,-0.00007517,-0.00018545,0.00007676,-0.00013808
 ,-0.00013015,0.00001307,0.05961144,0.01144686,-0.09383792,0.05848190,0
 .01143101,-0.05505418,0.00349288,-0.00538954,0.01325150,-0.11628005,-0
 .01198475,0.12675469\\-0.00000188,-0.00000016,0.00000018,-0.00000411,-
 0.00000347,0.00000437,-0.00000167,0.00000463,-0.00000427,0.00000230,0.
 00000024,-0.00000023,0.00000021,-0.00000485,0.00000443,-0.00000549,0.0
 0000256,-0.00000338,0.00000549,0.00000020,-0.00000453,-0.00000012,-0.0
 0000106,0.00000133,-0.00000076,-0.00000006,0.00000006,-0.00000062,0.00
 000102,-0.00000125,0.00000622,0.00000091,0.00000331,-0.00000164,0.0000
 0011,0.00000024,0.00001378,-0.00001090,0.00003798,0.00001156,-0.000001
 49,-0.00001009,-0.00000103,0.00000012,0.00000020,0.00001253,0.00000367
 ,0.00000752,0.00000377,0.00001226,-0.00003997,-0.00000768,0.00000048,-
 0.00000302,-0.00000664,-0.00000189,0.00000450,-0.00000649,-0.00000064,
 0.00000070,0.00003094,0.00001306,-0.00000337,0.00000825,0.00000506,-0.
 00003039,-0.00000951,-0.00002009,0.00001454,-0.00004217,0.00000366,-0.
 00001183,0.00003242,-0.00000642,-0.00000312,0.00001502,-0.00000277,0.0
 0002780,-0.00001568,0.00001714,-0.00001172,-0.00003701,-0.00001130,0.0
 0001999\\\@
 The archive entry for this job was punched.


 CHILDREN YOU ARE VERY LITTLE,
 AND YOUR BONES ARE VERY BRITTLE;
 IF YOU WOULD GROW GREAT AND STATELY
 YOU MUST TRY TO WALK SEDATELY.
 YOU MUST STILL BE BRIGHT AND QUIET,
 AND CONTENT WITH SIMPLE DIET;
 AND REMAIN, THROUGH ALL BEWILD'RING
 INNOCENT AND HONEST CHILDREN.
     -- A CHILD'S GARDEN OF VERSE,
        ROBERT LOUIS STEVENSON
 Job cpu time:       2 days  5 hours 35 minutes 18.5 seconds.
 Elapsed time:       0 days  1 hours 41 minutes 47.6 seconds.
 File lengths (MBytes):  RWF=   1001 Int=      0 D2E=      0 Chk=     36 Scr=      1
 Normal termination of Gaussian 16 at Tue Oct 31 23:01:19 2023.
