 Entering Gaussian System, Link 0=g16
 Input=ph3ph35cf3_3_1_m062x.com
 Output=ph3ph35cf3_3_1_m062x.log
 Initial command:
 /arc/software/Gaussian/g16.c01/l1.exe "/tmp/Gau-69488.inp" -scrdir="/tmp/"
 Entering Link 1 = /arc/software/Gaussian/g16.c01/l1.exe PID=     69489.
  
 Copyright (c) 1988-2019, Gaussian, Inc.  All Rights Reserved.
  
 This is part of the Gaussian(R) 16 program.  It is based on
 the Gaussian(R) 09 system (copyright 2009, Gaussian, Inc.),
 the Gaussian(R) 03 system (copyright 2003, Gaussian, Inc.),
 the Gaussian(R) 98 system (copyright 1998, Gaussian, Inc.),
 the Gaussian(R) 94 system (copyright 1995, Gaussian, Inc.),
 the Gaussian 92(TM) system (copyright 1992, Gaussian, Inc.),
 the Gaussian 90(TM) system (copyright 1990, Gaussian, Inc.),
 the Gaussian 88(TM) system (copyright 1988, Gaussian, Inc.),
 the Gaussian 86(TM) system (copyright 1986, Carnegie Mellon
 University), and the Gaussian 82(TM) system (copyright 1983,
 Carnegie Mellon University). Gaussian is a federally registered
 trademark of Gaussian, Inc.
  
 This software contains proprietary and confidential information,
 including trade secrets, belonging to Gaussian, Inc.
  
 This software is provided under written license and may be
 used, copied, transmitted, or stored only in accord with that
 written license.
  
 The following legend is applicable only to US Government
 contracts under FAR:
  
                    RESTRICTED RIGHTS LEGEND
  
 Use, reproduction and disclosure by the US Government is
 subject to restrictions as set forth in subparagraphs (a)
 and (c) of the Commercial Computer Software - Restricted
 Rights clause in FAR 52.227-19.
  
 Gaussian, Inc.
 340 Quinnipiac St., Bldg. 40, Wallingford CT 06492
  
  
 ---------------------------------------------------------------
 Warning -- This program may not be used in any manner that
 competes with the business of Gaussian, Inc. or will provide
 assistance to any competitor of Gaussian, Inc.  The licensee
 of this program is prohibited from giving any competitor of
 Gaussian, Inc. access to this program.  By using this program,
 the user acknowledges that Gaussian, Inc. is engaged in the
 business of creating and licensing software in the field of
 computational chemistry and represents and warrants to the
 licensee that it is not a competitor of Gaussian, Inc. and that
 it will not use this program in any manner prohibited above.
 ---------------------------------------------------------------
  

 Cite this work as:
 Gaussian 16, Revision C.01,
 M. J. Frisch, G. W. Trucks, H. B. Schlegel, G. E. Scuseria, 
 M. A. Robb, J. R. Cheeseman, G. Scalmani, V. Barone, 
 G. A. Petersson, H. Nakatsuji, X. Li, M. Caricato, A. V. Marenich, 
 J. Bloino, B. G. Janesko, R. Gomperts, B. Mennucci, H. P. Hratchian, 
 J. V. Ortiz, A. F. Izmaylov, J. L. Sonnenberg, D. Williams-Young, 
 F. Ding, F. Lipparini, F. Egidi, J. Goings, B. Peng, A. Petrone, 
 T. Henderson, D. Ranasinghe, V. G. Zakrzewski, J. Gao, N. Rega, 
 G. Zheng, W. Liang, M. Hada, M. Ehara, K. Toyota, R. Fukuda, 
 J. Hasegawa, M. Ishida, T. Nakajima, Y. Honda, O. Kitao, H. Nakai, 
 T. Vreven, K. Throssell, J. A. Montgomery, Jr., J. E. Peralta, 
 F. Ogliaro, M. J. Bearpark, J. J. Heyd, E. N. Brothers, K. N. Kudin, 
 V. N. Staroverov, T. A. Keith, R. Kobayashi, J. Normand, 
 K. Raghavachari, A. P. Rendell, J. C. Burant, S. S. Iyengar, 
 J. Tomasi, M. Cossi, J. M. Millam, M. Klene, C. Adamo, R. Cammi, 
 J. W. Ochterski, R. L. Martin, K. Morokuma, O. Farkas, 
 J. B. Foresman, and D. J. Fox, Gaussian, Inc., Wallingford CT, 2019.
 
 ******************************************
 Gaussian 16:  ES64L-G16RevC.01  3-Jul-2019
                31-Oct-2023 
 ******************************************
 %nprocshared=32
 Will use up to   32 processors via shared memory.
 %mem=8000MB
 %chk=ph3ph35cf3_3_1_m062x.chk
 -----------------------------------------
 # opt freq=noraman m062x def2tzvp pop=nbo
 -----------------------------------------
 1/18=20,19=15,26=3,38=1/1,3;
 2/9=110,12=2,17=6,18=5,40=1/2;
 3/5=44,7=101,11=2,25=1,30=1,71=1,74=-55/1,2,3;
 4//1;
 5/5=2,38=5/2;
 6/7=2,8=2,9=2,10=2,28=1,40=1/1,7;
 7//1,2,3,16;
 1/18=20,19=15,26=3/3(2);
 2/9=110/2;
 99//99;
 2/9=110/2;
 3/5=44,7=101,11=2,25=1,30=1,71=1,74=-55/1,2,3;
 4/5=5,16=3,69=1/1;
 5/5=2,38=5/2;
 7//1,2,3,16;
 1/18=20,19=15,26=3/3(-5);
 2/9=110/2;
 6/7=2,8=2,9=2,10=2,19=2,28=1,40=1/1,7;
 99/9=1/99;
 ------------
 Structure697
 ------------
 Symbolic Z-matrix:
 Charge =  0 Multiplicity = 1
 C                     1.6039    0.3446    0.0867 
 C                     2.4825   -0.2633    0.9939 
 C                     3.8613   -0.1297    0.8492 
 C                     4.3738    0.6174   -0.2076 
 C                     3.5182    1.2298   -1.119 
 C                     2.1403    1.0919   -0.9708 
 H                     2.0977   -0.8569    1.8101 
 H                     4.5293   -0.6064    1.552 
 H                     5.4434    0.7227   -0.3212 
 H                     3.9206    1.8119   -1.9356 
 H                     1.4869    1.5833   -1.6767 
 C                    -2.6686   -0.0761    0.5407 
 C                    -2.0788   -0.091    -0.7282 
 C                    -0.7005    0.0448   -0.874 
 C                     0.1264    0.1992    0.2437 
 C                    -0.4637    0.214     1.5121 
 C                    -1.8418    0.0783    1.6591 
 H                    -0.2724    0.0114   -1.8651 
 H                     0.1467    0.3496    2.3928 
 H                    -2.6842   -0.2269   -1.6124 
 H                    -2.2645    0.113     2.6526 
 C                    -6.9269   -0.4954    0.9932 
 C                    -6.0693   -1.1189    1.9061 
 C                    -4.6858   -0.9753    1.7472 
 C                    -4.145    -0.2215    0.6976 
 C                    -5.0275    0.3923   -0.2008 
 C                    -6.4148    0.263    -0.0653 
 H                    -7.9982   -0.6009    1.107 
 H                    -4.021    -1.4703    2.4416 
 H                    -4.63      0.9918   -1.0081 
 C                    -6.6305   -1.9461    3.0629 
 F                    -6.6929   -3.2229    2.6889 
 F                    -5.8477   -1.8552    4.1395 
 F                    -7.8558   -1.5425    3.4027 
 C                    -7.3533    0.9425   -1.0627 
 F                    -7.5813    2.1908   -0.658 
 F                    -6.8094    0.9819   -2.2803 
 F                    -8.5212    0.3034   -1.148 
 

 GradGradGradGradGradGradGradGradGradGradGradGradGradGradGradGradGradGrad
 Berny optimization.
 Initialization pass.
                           ----------------------------
                           !    Initial Parameters    !
                           ! (Angstroms and Degrees)  !
 --------------------------                            --------------------------
 ! Name  Definition              Value          Derivative Info.                !
 --------------------------------------------------------------------------------
 ! R1    R(1,2)                  1.4016         estimate D2E/DX2                !
 ! R2    R(1,6)                  1.4016         estimate D2E/DX2                !
 ! R3    R(1,15)                 1.4929         estimate D2E/DX2                !
 ! R4    R(2,3)                  1.3928         estimate D2E/DX2                !
 ! R5    R(2,7)                  1.0801         estimate D2E/DX2                !
 ! R6    R(3,4)                  1.392          estimate D2E/DX2                !
 ! R7    R(3,8)                  1.0805         estimate D2E/DX2                !
 ! R8    R(4,5)                  1.392          estimate D2E/DX2                !
 ! R9    R(4,9)                  1.0808         estimate D2E/DX2                !
 ! R10   R(5,6)                  1.3927         estimate D2E/DX2                !
 ! R11   R(5,10)                 1.0806         estimate D2E/DX2                !
 ! R12   R(6,11)                 1.0801         estimate D2E/DX2                !
 ! R13   R(12,13)                1.3994         estimate D2E/DX2                !
 ! R14   R(12,17)                1.3994         estimate D2E/DX2                !
 ! R15   R(12,25)                1.4918         estimate D2E/DX2                !
 ! R16   R(13,14)                1.3926         estimate D2E/DX2                !
 ! R17   R(13,20)                1.0802         estimate D2E/DX2                !
 ! R18   R(14,15)                1.3989         estimate D2E/DX2                !
 ! R19   R(14,18)                1.0801         estimate D2E/DX2                !
 ! R20   R(15,16)                1.399          estimate D2E/DX2                !
 ! R21   R(16,17)                1.3925         estimate D2E/DX2                !
 ! R22   R(16,19)                1.0801         estimate D2E/DX2                !
 ! R23   R(17,21)                1.0802         estimate D2E/DX2                !
 ! R24   R(22,23)                1.3991         estimate D2E/DX2                !
 ! R25   R(22,27)                1.3992         estimate D2E/DX2                !
 ! R26   R(22,28)                1.0825         estimate D2E/DX2                !
 ! R27   R(23,24)                1.4            estimate D2E/DX2                !
 ! R28   R(23,31)                1.5289         estimate D2E/DX2                !
 ! R29   R(24,25)                1.4008         estimate D2E/DX2                !
 ! R30   R(24,29)                1.0813         estimate D2E/DX2                !
 ! R31   R(25,26)                1.401          estimate D2E/DX2                !
 ! R32   R(26,27)                1.3999         estimate D2E/DX2                !
 ! R33   R(26,30)                1.0813         estimate D2E/DX2                !
 ! R34   R(27,35)                1.5288         estimate D2E/DX2                !
 ! R35   R(31,32)                1.3319         estimate D2E/DX2                !
 ! R36   R(31,33)                1.3342         estimate D2E/DX2                !
 ! R37   R(31,34)                1.3341         estimate D2E/DX2                !
 ! R38   R(35,36)                1.3319         estimate D2E/DX2                !
 ! R39   R(35,37)                1.3341         estimate D2E/DX2                !
 ! R40   R(35,38)                1.3341         estimate D2E/DX2                !
 ! A1    A(2,1,6)              118.6658         estimate D2E/DX2                !
 ! A2    A(2,1,15)             120.6686         estimate D2E/DX2                !
 ! A3    A(6,1,15)             120.6656         estimate D2E/DX2                !
 ! A4    A(1,2,3)              120.7776         estimate D2E/DX2                !
 ! A5    A(1,2,7)              120.2751         estimate D2E/DX2                !
 ! A6    A(3,2,7)              118.941          estimate D2E/DX2                !
 ! A7    A(2,3,4)              119.6589         estimate D2E/DX2                !
 ! A8    A(2,3,8)              120.1419         estimate D2E/DX2                !
 ! A9    A(4,3,8)              120.1988         estimate D2E/DX2                !
 ! A10   A(3,4,5)              120.457          estimate D2E/DX2                !
 ! A11   A(3,4,9)              119.7667         estimate D2E/DX2                !
 ! A12   A(5,4,9)              119.7763         estimate D2E/DX2                !
 ! A13   A(4,5,6)              119.6621         estimate D2E/DX2                !
 ! A14   A(4,5,10)             120.1916         estimate D2E/DX2                !
 ! A15   A(6,5,10)             120.146          estimate D2E/DX2                !
 ! A16   A(1,6,5)              120.7786         estimate D2E/DX2                !
 ! A17   A(1,6,11)             120.2742         estimate D2E/DX2                !
 ! A18   A(5,6,11)             118.9409         estimate D2E/DX2                !
 ! A19   A(13,12,17)           118.4803         estimate D2E/DX2                !
 ! A20   A(13,12,25)           120.7608         estimate D2E/DX2                !
 ! A21   A(17,12,25)           120.7589         estimate D2E/DX2                !
 ! A22   A(12,13,14)           120.7331         estimate D2E/DX2                !
 ! A23   A(12,13,20)           120.489          estimate D2E/DX2                !
 ! A24   A(14,13,20)           118.7681         estimate D2E/DX2                !
 ! A25   A(13,14,15)           120.807          estimate D2E/DX2                !
 ! A26   A(13,14,18)           119.0332         estimate D2E/DX2                !
 ! A27   A(15,14,18)           120.1505         estimate D2E/DX2                !
 ! A28   A(1,15,14)            120.7797         estimate D2E/DX2                !
 ! A29   A(1,15,16)            120.7806         estimate D2E/DX2                !
 ! A30   A(14,15,16)           118.4398         estimate D2E/DX2                !
 ! A31   A(15,16,17)           120.8033         estimate D2E/DX2                !
 ! A32   A(15,16,19)           120.1467         estimate D2E/DX2                !
 ! A33   A(17,16,19)           119.0408         estimate D2E/DX2                !
 ! A34   A(12,17,16)           120.7365         estimate D2E/DX2                !
 ! A35   A(12,17,21)           120.49           estimate D2E/DX2                !
 ! A36   A(16,17,21)           118.7636         estimate D2E/DX2                !
 ! A37   A(23,22,27)           120.7165         estimate D2E/DX2                !
 ! A38   A(23,22,28)           119.6426         estimate D2E/DX2                !
 ! A39   A(27,22,28)           119.6408         estimate D2E/DX2                !
 ! A40   A(22,23,24)           119.0756         estimate D2E/DX2                !
 ! A41   A(22,23,31)           120.6507         estimate D2E/DX2                !
 ! A42   A(24,23,31)           120.2736         estimate D2E/DX2                !
 ! A43   A(23,24,25)           121.4497         estimate D2E/DX2                !
 ! A44   A(23,24,29)           119.1921         estimate D2E/DX2                !
 ! A45   A(25,24,29)           119.3513         estimate D2E/DX2                !
 ! A46   A(12,25,24)           120.885          estimate D2E/DX2                !
 ! A47   A(12,25,26)           120.8818         estimate D2E/DX2                !
 ! A48   A(24,25,26)           118.2332         estimate D2E/DX2                !
 ! A49   A(25,26,27)           121.448          estimate D2E/DX2                !
 ! A50   A(25,26,30)           119.3493         estimate D2E/DX2                !
 ! A51   A(27,26,30)           119.196          estimate D2E/DX2                !
 ! A52   A(22,27,26)           119.0769         estimate D2E/DX2                !
 ! A53   A(22,27,35)           120.6481         estimate D2E/DX2                !
 ! A54   A(26,27,35)           120.275          estimate D2E/DX2                !
 ! A55   A(23,31,32)           108.8689         estimate D2E/DX2                !
 ! A56   A(23,31,33)           110.9973         estimate D2E/DX2                !
 ! A57   A(23,31,34)           111.4804         estimate D2E/DX2                !
 ! A58   A(32,31,33)           108.6256         estimate D2E/DX2                !
 ! A59   A(32,31,34)           108.5728         estimate D2E/DX2                !
 ! A60   A(33,31,34)           108.2244         estimate D2E/DX2                !
 ! A61   A(27,35,36)           108.8692         estimate D2E/DX2                !
 ! A62   A(27,35,37)           110.9941         estimate D2E/DX2                !
 ! A63   A(27,35,38)           111.4815         estimate D2E/DX2                !
 ! A64   A(36,35,37)           108.6275         estimate D2E/DX2                !
 ! A65   A(36,35,38)           108.5755         estimate D2E/DX2                !
 ! A66   A(37,35,38)           108.2217         estimate D2E/DX2                !
 ! D1    D(6,1,2,3)             -0.0399         estimate D2E/DX2                !
 ! D2    D(6,1,2,7)           -179.1149         estimate D2E/DX2                !
 ! D3    D(15,1,2,3)           179.9674         estimate D2E/DX2                !
 ! D4    D(15,1,2,7)             0.8924         estimate D2E/DX2                !
 ! D5    D(2,1,6,5)             -0.0345         estimate D2E/DX2                !
 ! D6    D(2,1,6,11)          -179.1102         estimate D2E/DX2                !
 ! D7    D(15,1,6,5)           179.9582         estimate D2E/DX2                !
 ! D8    D(15,1,6,11)            0.8825         estimate D2E/DX2                !
 ! D9    D(2,1,15,14)         -141.5598         estimate D2E/DX2                !
 ! D10   D(2,1,15,16)           38.4325         estimate D2E/DX2                !
 ! D11   D(6,1,15,14)           38.4476         estimate D2E/DX2                !
 ! D12   D(6,1,15,16)         -141.56           estimate D2E/DX2                !
 ! D13   D(1,2,3,4)              0.0742         estimate D2E/DX2                !
 ! D14   D(1,2,3,8)           -179.7249         estimate D2E/DX2                !
 ! D15   D(7,2,3,4)            179.1613         estimate D2E/DX2                !
 ! D16   D(7,2,3,8)             -0.6378         estimate D2E/DX2                !
 ! D17   D(2,3,4,5)             -0.0341         estimate D2E/DX2                !
 ! D18   D(2,3,4,9)            179.9638         estimate D2E/DX2                !
 ! D19   D(8,3,4,5)            179.7649         estimate D2E/DX2                !
 ! D20   D(8,3,4,9)             -0.2372         estimate D2E/DX2                !
 ! D21   D(3,4,5,6)             -0.0394         estimate D2E/DX2                !
 ! D22   D(3,4,5,10)           179.7657         estimate D2E/DX2                !
 ! D23   D(9,4,5,6)            179.9627         estimate D2E/DX2                !
 ! D24   D(9,4,5,10)            -0.2321         estimate D2E/DX2                !
 ! D25   D(4,5,6,1)              0.074          estimate D2E/DX2                !
 ! D26   D(4,5,6,11)           179.1618         estimate D2E/DX2                !
 ! D27   D(10,5,6,1)          -179.7312         estimate D2E/DX2                !
 ! D28   D(10,5,6,11)           -0.6434         estimate D2E/DX2                !
 ! D29   D(17,12,13,14)         -0.0016         estimate D2E/DX2                !
 ! D30   D(17,12,13,20)        178.8453         estimate D2E/DX2                !
 ! D31   D(25,12,13,14)        179.999          estimate D2E/DX2                !
 ! D32   D(25,12,13,20)         -1.1541         estimate D2E/DX2                !
 ! D33   D(13,12,17,16)          0.0013         estimate D2E/DX2                !
 ! D34   D(13,12,17,21)        178.843          estimate D2E/DX2                !
 ! D35   D(25,12,17,16)       -179.9993         estimate D2E/DX2                !
 ! D36   D(25,12,17,21)         -1.1576         estimate D2E/DX2                !
 ! D37   D(13,12,25,24)        141.0927         estimate D2E/DX2                !
 ! D38   D(13,12,25,26)        -38.9124         estimate D2E/DX2                !
 ! D39   D(17,12,25,24)        -38.9067         estimate D2E/DX2                !
 ! D40   D(17,12,25,26)        141.0883         estimate D2E/DX2                !
 ! D41   D(12,13,14,15)          0.0001         estimate D2E/DX2                !
 ! D42   D(12,13,14,18)        178.8951         estimate D2E/DX2                !
 ! D43   D(20,13,14,15)       -178.8663         estimate D2E/DX2                !
 ! D44   D(20,13,14,18)          0.0287         estimate D2E/DX2                !
 ! D45   D(13,14,15,1)         179.9942         estimate D2E/DX2                !
 ! D46   D(13,14,15,16)          0.0017         estimate D2E/DX2                !
 ! D47   D(18,14,15,1)           1.1115         estimate D2E/DX2                !
 ! D48   D(18,14,15,16)       -178.881          estimate D2E/DX2                !
 ! D49   D(1,15,16,17)        -179.9945         estimate D2E/DX2                !
 ! D50   D(1,15,16,19)           1.1195         estimate D2E/DX2                !
 ! D51   D(14,15,16,17)         -0.002          estimate D2E/DX2                !
 ! D52   D(14,15,16,19)       -178.888          estimate D2E/DX2                !
 ! D53   D(15,16,17,12)          0.0005         estimate D2E/DX2                !
 ! D54   D(15,16,17,21)       -178.8609         estimate D2E/DX2                !
 ! D55   D(19,16,17,12)        178.8986         estimate D2E/DX2                !
 ! D56   D(19,16,17,21)          0.0372         estimate D2E/DX2                !
 ! D57   D(27,22,23,24)         -0.0384         estimate D2E/DX2                !
 ! D58   D(27,22,23,31)        179.9407         estimate D2E/DX2                !
 ! D59   D(28,22,23,24)        179.9594         estimate D2E/DX2                !
 ! D60   D(28,22,23,31)         -0.0616         estimate D2E/DX2                !
 ! D61   D(23,22,27,26)         -0.0424         estimate D2E/DX2                !
 ! D62   D(23,22,27,35)        179.9403         estimate D2E/DX2                !
 ! D63   D(28,22,27,26)        179.9599         estimate D2E/DX2                !
 ! D64   D(28,22,27,35)         -0.0574         estimate D2E/DX2                !
 ! D65   D(22,23,24,25)          0.0783         estimate D2E/DX2                !
 ! D66   D(22,23,24,29)       -178.9572         estimate D2E/DX2                !
 ! D67   D(31,23,24,25)       -179.9008         estimate D2E/DX2                !
 ! D68   D(31,23,24,29)          1.0637         estimate D2E/DX2                !
 ! D69   D(22,23,31,32)         93.5487         estimate D2E/DX2                !
 ! D70   D(22,23,31,33)       -146.933          estimate D2E/DX2                !
 ! D71   D(22,23,31,34)        -26.2011         estimate D2E/DX2                !
 ! D72   D(24,23,31,32)        -86.4725         estimate D2E/DX2                !
 ! D73   D(24,23,31,33)         33.0457         estimate D2E/DX2                !
 ! D74   D(24,23,31,34)        153.7777         estimate D2E/DX2                !
 ! D75   D(23,24,25,12)        179.9595         estimate D2E/DX2                !
 ! D76   D(23,24,25,26)         -0.0356         estimate D2E/DX2                !
 ! D77   D(29,24,25,12)         -1.0065         estimate D2E/DX2                !
 ! D78   D(29,24,25,26)        178.9984         estimate D2E/DX2                !
 ! D79   D(12,25,26,27)        179.9569         estimate D2E/DX2                !
 ! D80   D(12,25,26,30)         -0.9953         estimate D2E/DX2                !
 ! D81   D(24,25,26,27)         -0.0481         estimate D2E/DX2                !
 ! D82   D(24,25,26,30)        178.9997         estimate D2E/DX2                !
 ! D83   D(25,26,27,22)          0.0867         estimate D2E/DX2                !
 ! D84   D(25,26,27,35)       -179.896          estimate D2E/DX2                !
 ! D85   D(30,26,27,22)       -178.9625         estimate D2E/DX2                !
 ! D86   D(30,26,27,35)          1.0547         estimate D2E/DX2                !
 ! D87   D(22,27,35,36)         93.5646         estimate D2E/DX2                !
 ! D88   D(22,27,35,37)       -146.9165         estimate D2E/DX2                !
 ! D89   D(22,27,35,38)        -26.1894         estimate D2E/DX2                !
 ! D90   D(26,27,35,36)        -86.4529         estimate D2E/DX2                !
 ! D91   D(26,27,35,37)         33.066          estimate D2E/DX2                !
 ! D92   D(26,27,35,38)        153.793          estimate D2E/DX2                !
 --------------------------------------------------------------------------------
 Trust Radius=3.00D-01 FncErr=1.00D-07 GrdErr=1.00D-06 EigMax=2.50D+02 EigMin=1.00D-04
 Number of steps in this run=    208 maximum allowed number of steps=    228.
 GradGradGradGradGradGradGradGradGradGradGradGradGradGradGradGradGradGrad

                          Input orientation:                          
 ---------------------------------------------------------------------
 Center     Atomic      Atomic             Coordinates (Angstroms)
 Number     Number       Type             X           Y           Z
 ---------------------------------------------------------------------
      1          6           0        1.603900    0.344600    0.086700
      2          6           0        2.482500   -0.263300    0.993900
      3          6           0        3.861300   -0.129700    0.849200
      4          6           0        4.373800    0.617400   -0.207600
      5          6           0        3.518200    1.229800   -1.119000
      6          6           0        2.140300    1.091900   -0.970800
      7          1           0        2.097700   -0.856900    1.810100
      8          1           0        4.529300   -0.606400    1.552000
      9          1           0        5.443400    0.722700   -0.321200
     10          1           0        3.920600    1.811900   -1.935600
     11          1           0        1.486900    1.583300   -1.676700
     12          6           0       -2.668600   -0.076100    0.540700
     13          6           0       -2.078800   -0.091000   -0.728200
     14          6           0       -0.700500    0.044800   -0.874000
     15          6           0        0.126400    0.199200    0.243700
     16          6           0       -0.463700    0.214000    1.512100
     17          6           0       -1.841800    0.078300    1.659100
     18          1           0       -0.272400    0.011400   -1.865100
     19          1           0        0.146700    0.349600    2.392800
     20          1           0       -2.684200   -0.226900   -1.612400
     21          1           0       -2.264500    0.113000    2.652600
     22          6           0       -6.926900   -0.495400    0.993200
     23          6           0       -6.069300   -1.118900    1.906100
     24          6           0       -4.685800   -0.975300    1.747200
     25          6           0       -4.145000   -0.221500    0.697600
     26          6           0       -5.027500    0.392300   -0.200800
     27          6           0       -6.414800    0.263000   -0.065300
     28          1           0       -7.998200   -0.600900    1.107000
     29          1           0       -4.021000   -1.470300    2.441600
     30          1           0       -4.630000    0.991800   -1.008100
     31          6           0       -6.630500   -1.946100    3.062900
     32          9           0       -6.692900   -3.222900    2.688900
     33          9           0       -5.847700   -1.855200    4.139500
     34          9           0       -7.855800   -1.542500    3.402700
     35          6           0       -7.353300    0.942500   -1.062700
     36          9           0       -7.581300    2.190800   -0.658000
     37          9           0       -6.809400    0.981900   -2.280300
     38          9           0       -8.521200    0.303400   -1.148000
 ---------------------------------------------------------------------
                    Distance matrix (angstroms):
                    1          2          3          4          5
     1  C    0.000000
     2  C    1.401603   0.000000
     3  C    2.429449   1.392794   0.000000
     4  C    2.798817   2.407540   1.391992   0.000000
     5  C    2.429369   2.786821   2.416561   1.392026   0.000000
     6  C    1.401602   2.411164   2.786853   2.407519   1.392691
     7  H    2.158135   1.080099   2.135985   3.380134   3.866751
     8  H    3.407267   2.149089   1.080460   2.148967   3.395320
     9  H    3.879575   3.386534   2.144636   1.080758   2.144768
    10  H    3.407311   3.867371   3.395355   2.149001   1.080556
    11  H    2.158158   3.396065   3.866822   3.380149   2.135924
    12  C    4.317101   5.174385   6.537403   7.115918   6.537314
    13  C    3.796852   4.878604   6.146094   6.512212   5.763996
    14  C    2.514574   3.703440   4.879538   5.149804   4.388813
    15  C    1.492915   2.515534   3.797931   4.291733   3.797814
    16  C    2.514715   3.029264   4.388985   5.149903   4.879556
    17  C    3.796868   4.388479   5.764074   6.512210   6.146006
    18  H    2.727828   3.979801   4.947202   4.970082   4.050903
    19  H    2.727921   2.790794   4.051010   4.970128   4.947171
    20  H    4.647726   5.786961   6.993747   7.245804   6.390241
    21  H    4.647795   5.042509   6.390351   7.245840   6.993699
    22  C    8.619854   9.412262  10.795357  11.418672  10.795268
    23  C    8.020601   8.642768  10.035555  10.795407  10.324136
    24  C    6.637750   7.242854   8.635645   9.403951   8.965667
    25  C    5.808917   6.634252   8.008261   8.607735   8.008180
    26  C    6.637801   7.632642   8.965810   9.403997   8.635594
    27  C    8.020556   8.975569  10.324183  10.795357  10.035411
    28  H    9.702335  10.486746  11.871657  12.501152  11.871563
    29  H    6.362304   6.771130   8.152521   9.047067   8.764014
    30  H    6.362308   7.494727   8.764103   9.047065   8.152429
    31  C    9.050437   9.495228  10.875553  11.762751  11.426755
    32  F    9.398691   9.788780  11.150943  12.066875  11.772561
    33  F    8.763027   9.045506  10.395581  11.379371  11.175381
    34  F   10.200143  10.692012  12.075049  12.933002  12.549872
    35  C    9.050416  10.120599  11.426821  11.762728  10.875441
    36  F    9.398454  10.489588  11.772403  12.066601  11.150558
    37  F    8.763131   9.930273  11.175565  11.379495  10.395643
    38  F   10.200188  11.224540  12.550008  12.933057  12.075024
                    6          7          8          9         10
     6  C    0.000000
     7  H    3.396033   0.000000
     8  H    3.867307   2.458057   0.000000
     9  H    3.386556   4.269811   2.472036   0.000000
    10  H    2.149118   4.947295   4.287429   2.472158   0.000000
    11  H    1.080139   4.299468   4.947271   4.269883   2.458085
    12  C    5.174396   4.993860   7.287915   8.196676   7.287946
    13  C    4.388498   4.946991   7.009418   7.577021   6.408716
    14  C    3.029180   3.980877   5.801754   6.205856   5.060060
    15  C    2.515495   2.730381   4.663279   5.372490   4.663272
    16  C    3.703555   2.792204   5.060108   6.205932   5.801897
    17  C    4.878614   4.051797   6.408682   7.577003   7.009457
    18  H    2.790766   4.458521   5.925755   5.963216   4.563773
    19  H    3.979856   2.366766   4.563777   5.963223   5.925849
    20  H    5.042488   5.914133   7.886192   8.284131   6.919866
    21  H    5.787014   4.547450   6.919868   8.284138   7.886273
    22  C    9.412276   9.068705  11.470357  12.499429  11.470386
    23  C    8.975618   8.171765  10.616891  11.869904  11.097132
    24  C    7.632593   6.784825   9.224547  10.476744   9.767375
    25  C    6.634273   6.372809   8.724771   9.688492   8.724813
    26  C    7.242907   7.508175   9.767402  10.476803   9.224602
    27  C    8.642728   8.788285  11.097064  11.869866  10.616855
    28  H   10.486754  10.123590  12.535402  13.581910  12.535422
    29  H    7.494729   6.181710   8.639754  10.100355   9.643740
    30  H    6.771143   7.524752   9.643709  10.100378   8.639767
    31  C   10.120628   8.884669  11.341021  12.820050  12.265124
    32  F   10.489820   9.145758  11.579136  13.111760  12.624642
    33  F    9.930192   8.339789  10.767395  12.410977  12.073697
    34  F   11.224508  10.103395  12.557551  13.995259  13.357883
    35  C    9.495220  10.040529  12.265070  12.820049  11.341015
    36  F    9.788510  10.443325  12.624384  13.111505  11.578840
    37  F    9.045663   9.972411  12.073746  12.411139  10.767573
    38  F   10.692087  11.084119  13.357892  13.995337  12.557638
                   11         12         13         14         15
    11  H    0.000000
    12  C    4.993861   0.000000
    13  C    4.051808   1.399355   0.000000
    14  C    2.792137   2.426811   1.392627   0.000000
    15  C    2.730317   2.824186   2.427285   1.398877   0.000000
    16  C    3.980988   2.426800   2.778582   2.403784   1.399027
    17  C    4.947002   1.399377   2.405002   2.778540   2.427300
    18  H    2.366749   3.396661   2.136845   1.080122   2.154379
    19  H    4.458585   3.396676   3.858448   3.388603   2.154452
    20  H    4.547421   2.158431   1.080179   2.134039   3.395017
    21  H    5.914188   2.158513   3.392036   3.858452   3.395089
    22  C    9.068704   4.302753   5.160507   6.522753   7.126939
    23  C    8.788316   3.810054   4.890829   6.156880   6.548867
    24  C    7.508112   2.516605   3.702167   4.877900   5.176604
    25  C    6.372825   1.491816   2.513786   3.795448   4.316002
    26  C    6.784849   2.516670   3.034232   4.392822   5.176635
    27  C    8.171699   3.810018   4.400642   5.775364   6.548805
    28  H   10.123578   5.385234   6.218300   7.589316   8.209420
    29  H    7.524748   2.717756   3.965128   4.930969   4.981859
    30  H    6.181696   2.717771   2.785574   4.044226   4.981823
    31  C   10.040551   5.055200   6.207399   7.391060   7.629279
    32  F   10.443522   5.541850   6.540282   7.699414   8.012030
    33  F    9.972353   5.120863   6.404023   7.432284   7.422108
    34  F   11.084086   6.103148   7.248787   8.485753   8.759470
    35  C    8.884636   5.055181   5.385198   6.715744   7.629226
    36  F    9.145439   5.541691   5.957268   7.210921   8.011752
    37  F    8.339941   5.120901   5.093006   6.338335   7.422164
    38  F   10.103452   6.103168   6.468099   7.829770   8.759490
                   16         17         18         19         20
    16  C    0.000000
    17  C    1.392546   0.000000
    18  H    3.388676   3.858429   0.000000
    19  H    1.080096   2.136832   4.291822   0.000000
    20  H    3.858434   3.391975   2.436683   4.938418   0.000000
    21  H    2.133969   1.080241   4.938461   2.436670   4.299059
    22  C    6.522688   5.160504   7.260103   7.260077   4.986156
    23  C    5.775345   4.400688   7.007394   6.405624   4.963306
    24  C    4.392702   3.034167   5.787952   5.052249   3.981635
    25  C    3.795397   2.513781   4.649592   4.649575   2.733142
    26  C    4.877918   3.702230   5.052322   5.787999   2.804831
    27  C    6.156800   4.890808   6.405596   7.007356   4.068279
    28  H    7.589259   6.218311   8.300378   8.300369   5.981104
    29  H    4.044159   2.785567   5.898737   4.547982   4.446121
    30  H    4.930967   3.965160   4.548001   5.898763   2.374141
    31  C    6.715686   5.385211   8.279035   7.186773   6.355105
    32  F    7.211108   5.957481   8.510137   7.722083   6.599005
    33  F    6.338160   5.092940   8.403772   6.621551   6.763390
    34  F    7.829611   6.468024   9.363348   8.284923   7.323078
    35  C    7.391001   6.207388   7.186789   8.279010   4.844601
    36  F    7.699175   6.540143   7.721845   8.509958   5.544163
    37  F    7.432353   6.404094   6.621679   8.403868   4.350237
    38  F    8.485719   7.248784   8.285059   9.363327   5.879409
                   21         22         23         24         25
    21  H    0.000000
    22  C    4.986154   0.000000
    23  C    4.068334   1.399148   0.000000
    24  C    2.804789   2.412747   1.399979   0.000000
    25  C    2.733166   2.810937   2.443098   1.400835   0.000000
    26  C    3.981717   2.412751   2.794298   2.404536   1.400957
    27  C    4.963312   1.399228   2.432167   2.794277   2.443102
    28  H    5.981124   1.082481   2.151172   3.394411   3.893418
    29  H    2.374163   3.390066   2.146107   1.081284   2.148584
    30  H    4.446190   3.390091   3.875461   3.385893   2.148659
    31  C    4.844605   2.544807   1.528853   2.540743   3.840130
    32  F    5.544391   3.220157   2.329907   3.157048   4.411969
    33  F    4.350173   3.593457   2.362058   2.801309   4.173109
    34  F    5.879283   2.786568   2.368719   3.620952   4.778352
    35  C    6.355109   2.544818   3.835596   4.323084   3.840149
    36  F    6.598916   3.220306   4.451389   4.918648   4.411916
    37  F    6.763476   3.593330   4.742052   4.955912   4.173139
    38  F    7.323053   2.786505   4.166807   4.972680   4.778377
                   26         27         28         29         30
    26  C    0.000000
    27  C    1.399886   0.000000
    28  H    3.394384   2.151224   0.000000
    29  H    3.385941   3.875455   4.284289   0.000000
    30  H    1.081268   2.146050   4.284287   4.281734   0.000000
    31  C    4.323131   3.835660   2.739655   2.724315   5.404285
    32  F    4.918698   4.451343   3.328829   3.204967   5.973865
    33  F    4.956025   4.742227   3.923516   2.523459   6.007161
    34  F    4.972720   4.166934   2.485383   3.954063   6.023589
    35  C    2.540657   1.528826   2.739631   5.404253   2.724293
    36  F    3.156823   2.329899   3.329057   5.973852   3.204738
    37  F    2.801270   2.361938   3.923303   6.007062   2.523564
    38  F    3.620916   2.368711   2.485219   6.023540   3.954100
                   31         32         33         34         35
    31  C    0.000000
    32  F    1.331911   0.000000
    33  F    1.334206   2.165458   0.000000
    34  F    1.334060   2.164623   2.161740   0.000000
    35  C    5.087929   5.644572   6.095641   5.134932   0.000000
    36  F    5.644737   6.426441   6.510875   5.522876   1.331923
    37  F    6.095488   6.510519   7.084337   6.305873   1.334140
    38  F    5.134849   5.522615   6.305935   4.955701   1.334060
                   36         37         38
    36  F    0.000000
    37  F    2.165439   0.000000
    38  F    2.164669   2.161649   0.000000
 Stoichiometry    C20H12F6
 Framework group  C1[X(C20H12F6)]
 Deg. of freedom   108
 Full point group                 C1      NOp   1
 Largest Abelian subgroup         C1      NOp   1
 Largest concise Abelian subgroup C1      NOp   1
                         Standard orientation:                         
 ---------------------------------------------------------------------
 Center     Atomic      Atomic             Coordinates (Angstroms)
 Number     Number       Type             X           Y           Z
 ---------------------------------------------------------------------
      1          6           0       -4.963898    0.000001   -0.000052
      2          6           0       -5.678776    1.204894   -0.040954
      3          6           0       -7.071568    1.207563   -0.041800
      4          6           0       -7.762715   -0.000001   -0.000005
      5          6           0       -7.071480   -1.207551    0.041822
      6          6           0       -5.678792   -1.204879    0.040931
      7          1           0       -5.154271    2.147946   -0.087446
      8          1           0       -7.612303    2.142276   -0.078011
      9          1           0       -8.843473    0.000058    0.000002
     10          1           0       -7.612325   -2.142313    0.077996
     11          1           0       -5.154264   -2.147964    0.087442
     12          6           0       -0.646797   -0.000002   -0.000025
     13          6           0       -1.362489   -0.966705   -0.715191
     14          6           0       -2.755116   -0.966199   -0.714773
     15          6           0       -3.470983   -0.000046    0.000028
     16          6           0       -2.755036    0.966252    0.714847
     17          6           0       -1.362491    0.966720    0.715158
     18          1           0       -3.279763   -1.714243   -1.290829
     19          1           0       -3.279730    1.714287    1.290822
     20          1           0       -0.843082   -1.716793   -1.293441
     21          1           0       -0.843063    1.716834    1.293472
     22          6           0        3.655956    0.000002    0.000009
     23          6           0        2.963981    1.215011   -0.050379
     24          6           0        1.564070    1.201166   -0.050641
     25          6           0        0.845019    0.000023   -0.000026
     26          6           0        1.564108   -1.201233    0.050699
     27          6           0        2.963925   -1.215068    0.050383
     28          1           0        4.738437   -0.000023   -0.000015
     29          1           0        1.027402    2.138194   -0.106696
     30          1           0        1.027394   -2.138222    0.106652
     31          6           0        3.721647    2.541833   -0.104023
     32          9           0        3.868504    2.902811   -1.377646
     33          9           0        3.051292    3.501393    0.536269
     34          9           0        4.930689    2.436716    0.449950
     35          6           0        3.721621   -2.541841    0.104035
     36          9           0        3.868171   -2.903002    1.377654
     37          9           0        3.051458   -3.501240   -0.536561
     38          9           0        4.930769   -2.436642   -0.449690
 ---------------------------------------------------------------------
 Rotational constants (GHZ):           0.3339020           0.0790121           0.0659343
 Standard basis: def2TZVP (5D, 7F)
 There are  1008 symmetry adapted cartesian basis functions of A   symmetry.
 There are   878 symmetry adapted basis functions of A   symmetry.
   878 basis functions,  1422 primitive gaussians,  1008 cartesian basis functions
    93 alpha electrons       93 beta electrons
       nuclear repulsion energy      2157.8497826455 Hartrees.
 NAtoms=   38 NActive=   38 NUniq=   38 SFac= 1.00D+00 NAtFMM=   60 NAOKFM=F Big=F
 Integral buffers will be    131072 words long.
 Raffenetti 2 integral format.
 Two-electron integral symmetry is turned on.
 One-electron integrals computed using PRISM.
   1 Symmetry operations used in ECPInt.
 ECPInt:  NShTT=   55945 NPrTT=  176136 LenC2=   42179 LenP2D=   91617.
 LDataN:  DoStor=T MaxTD1= 6 Len=  172
 Number of processors reduced to  28 by ecpmxn.
 NBasis=   878 RedAO= T EigKep=  5.92D-06  NBF=   878
 NBsUse=   878 1.00D-06 EigRej= -1.00D+00 NBFU=   878
 ExpMin= 9.52D-02 ExpMax= 3.55D+04 ExpMxC= 1.21D+03 IAcc=3 IRadAn=         5 AccDes= 0.00D+00
 Harris functional with IExCor= 1009 and IRadAn=       5 diagonalized for initial guess.
 HarFok:  IExCor= 1009 AccDes= 0.00D+00 IRadAn=         5 IDoV= 1 UseB2=F ITyADJ=14
 ICtDFT=  3500011 ScaDFX=  1.000000  1.000000  1.000000  1.000000
 FoFCou: FMM=F IPFlag=           0 FMFlag=      100000 FMFlg1=           0
         NFxFlg=           0 DoJE=T BraDBF=F KetDBF=T FulRan=T
         wScrn=  0.000000 ICntrl=       500 IOpCl=  0 I1Cent=   200000004 NGrid=           0
         NMat0=    1 NMatS0=      1 NMatT0=    0 NMatD0=    1 NMtDS0=    0 NMtDT0=    0
 Petite list used in FoFCou.
 Requested convergence on RMS density matrix=1.00D-08 within 128 cycles.
 Requested convergence on MAX density matrix=1.00D-06.
 Requested convergence on             energy=1.00D-06.
 No special actions if energy rises.
 Integral accuracy reduced to 1.0D-05 until final iterations.
 Problem detected with inexpensive integrals.
 Switching to full accuracy and repeating last cycle.
 SCF Done:  E(RM062X) =  -1368.49144506     A.U. after   14 cycles
            NFock= 14  Conv=0.35D-08     -V/T= 2.0046

 **********************************************************************

            Population analysis using the SCF Density.

 **********************************************************************

 Orbital symmetries:
       Occupied  (A) (A) (A) (A) (A) (A) (A) (A) (A) (A) (A) (A)
                 (A) (A) (A) (A) (A) (A) (A) (A) (A) (A) (A) (A)
                 (A) (A) (A) (A) (A) (A) (A) (A) (A) (A) (A) (A)
                 (A) (A) (A) (A) (A) (A) (A) (A) (A) (A) (A) (A)
                 (A) (A) (A) (A) (A) (A) (A) (A) (A) (A) (A) (A)
                 (A) (A) (A) (A) (A) (A) (A) (A) (A) (A) (A) (A)
                 (A) (A) (A) (A) (A) (A) (A) (A) (A) (A) (A) (A)
                 (A) (A) (A) (A) (A) (A) (A) (A) (A)
       Virtual   (A) (A) (A) (A) (A) (A) (A) (A) (A) (A) (A) (A)
                 (A) (A) (A) (A) (A) (A) (A) (A) (A) (A) (A) (A)
                 (A) (A) (A) (A) (A) (A) (A) (A) (A) (A) (A) (A)
                 (A) (A) (A) (A) (A) (A) (A) (A) (A) (A) (A) (A)
                 (A) (A) (A) (A) (A) (A) (A) (A) (A) (A) (A) (A)
                 (A) (A) (A) (A) (A) (A) (A) (A) (A) (A) (A) (A)
                 (A) (A) (A) (A) (A) (A) (A) (A) (A) (A) (A) (A)
                 (A) (A) (A) (A) (A) (A) (A) (A) (A) (A) (A) (A)
                 (A) (A) (A) (A) (A) (A) (A) (A) (A) (A) (A) (A)
                 (A) (A) (A) (A) (A) (A) (A) (A) (A) (A) (A) (A)
                 (A) (A) (A) (A) (A) (A) (A) (A) (A) (A) (A) (A)
                 (A) (A) (A) (A) (A) (A) (A) (A) (A) (A) (A) (A)
                 (A) (A) (A) (A) (A) (A) (A) (A) (A) (A) (A) (A)
                 (A) (A) (A) (A) (A) (A) (A) (A) (A) (A) (A) (A)
                 (A) (A) (A) (A) (A) (A) (A) (A) (A) (A) (A) (A)
                 (A) (A) (A) (A) (A) (A) (A) (A) (A) (A) (A) (A)
                 (A) (A) (A) (A) (A) (A) (A) (A) (A) (A) (A) (A)
                 (A) (A) (A) (A) (A) (A) (A) (A) (A) (A) (A) (A)
                 (A) (A) (A) (A) (A) (A) (A) (A) (A) (A) (A) (A)
                 (A) (A) (A) (A) (A) (A) (A) (A) (A) (A) (A) (A)
                 (A) (A) (A) (A) (A) (A) (A) (A) (A) (A) (A) (A)
                 (A) (A) (A) (A) (A) (A) (A) (A) (A) (A) (A) (A)
                 (A) (A) (A) (A) (A) (A) (A) (A) (A) (A) (A) (A)
                 (A) (A) (A) (A) (A) (A) (A) (A) (A) (A) (A) (A)
                 (A) (A) (A) (A) (A) (A) (A) (A) (A) (A) (A) (A)
                 (A) (A) (A) (A) (A) (A) (A) (A) (A) (A) (A) (A)
                 (A) (A) (A) (A) (A) (A) (A) (A) (A) (A) (A) (A)
                 (A) (A) (A) (A) (A) (A) (A) (A) (A) (A) (A) (A)
                 (A) (A) (A) (A) (A) (A) (A) (A) (A) (A) (A) (A)
                 (A) (A) (A) (A) (A) (A) (A) (A) (A) (A) (A) (A)
                 (A) (A) (A) (A) (A) (A) (A) (A) (A) (A) (A) (A)
                 (A) (A) (A) (A) (A) (A) (A) (A) (A) (A) (A) (A)
                 (A) (A) (A) (A) (A) (A) (A) (A) (A) (A) (A) (A)
                 (A) (A) (A) (A) (A) (A) (A) (A) (A) (A) (A) (A)
                 (A) (A) (A) (A) (A) (A) (A) (A) (A) (A) (A) (A)
                 (A) (A) (A) (A) (A) (A) (A) (A) (A) (A) (A) (A)
                 (A) (A) (A) (A) (A) (A) (A) (A) (A) (A) (A) (A)
                 (A) (A) (A) (A) (A) (A) (A) (A) (A) (A) (A) (A)
                 (A) (A) (A) (A) (A) (A) (A) (A) (A) (A) (A) (A)
                 (A) (A) (A) (A) (A) (A) (A) (A) (A) (A) (A) (A)
                 (A) (A) (A) (A) (A) (A) (A) (A) (A) (A) (A) (A)
                 (A) (A) (A) (A) (A) (A) (A) (A) (A) (A) (A) (A)
                 (A) (A) (A) (A) (A) (A) (A) (A) (A) (A) (A) (A)
                 (A) (A) (A) (A) (A) (A) (A) (A) (A) (A) (A) (A)
                 (A) (A) (A) (A) (A) (A) (A) (A) (A) (A) (A) (A)
                 (A) (A) (A) (A) (A) (A) (A) (A) (A) (A) (A) (A)
                 (A) (A) (A) (A) (A) (A) (A) (A) (A) (A) (A) (A)
                 (A) (A) (A) (A) (A) (A) (A) (A) (A) (A) (A) (A)
                 (A) (A) (A) (A) (A) (A) (A) (A) (A) (A) (A) (A)
                 (A) (A) (A) (A) (A) (A) (A) (A) (A) (A) (A) (A)
                 (A) (A) (A) (A) (A) (A) (A) (A) (A) (A) (A) (A)
                 (A) (A) (A) (A) (A) (A) (A) (A) (A) (A) (A) (A)
                 (A) (A) (A) (A) (A) (A) (A) (A) (A) (A) (A) (A)
                 (A) (A) (A) (A) (A) (A) (A) (A) (A) (A) (A) (A)
                 (A) (A) (A) (A) (A) (A) (A) (A) (A) (A) (A) (A)
                 (A) (A) (A) (A) (A) (A) (A) (A) (A) (A) (A) (A)
                 (A) (A) (A) (A) (A) (A) (A) (A) (A) (A) (A) (A)
                 (A) (A) (A) (A) (A) (A) (A) (A) (A) (A) (A) (A)
                 (A) (A) (A) (A) (A) (A) (A) (A) (A) (A) (A) (A)
                 (A) (A) (A) (A) (A) (A) (A) (A) (A) (A) (A) (A)
                 (A) (A) (A) (A) (A) (A) (A) (A) (A) (A) (A) (A)
                 (A) (A) (A) (A) (A) (A) (A) (A) (A) (A) (A) (A)
                 (A) (A) (A) (A) (A) (A) (A) (A) (A) (A) (A) (A)
                 (A) (A) (A) (A) (A) (A) (A) (A) (A) (A) (A) (A)
                 (A) (A) (A) (A) (A) (A) (A) (A) (A) (A) (A) (A)
                 (A) (A) (A) (A) (A)
 The electronic state is 1-A.
 Alpha  occ. eigenvalues --  -25.29112 -25.29111 -25.29103 -25.29102 -25.28753
 Alpha  occ. eigenvalues --  -25.28753 -10.80928 -10.80928 -10.59217 -10.59216
 Alpha  occ. eigenvalues --  -10.58663 -10.58297 -10.57975 -10.57970 -10.57276
 Alpha  occ. eigenvalues --  -10.56835 -10.56441 -10.56023 -10.56019 -10.55739
 Alpha  occ. eigenvalues --  -10.55736 -10.55209 -10.55205 -10.55093 -10.55075
 Alpha  occ. eigenvalues --  -10.54916  -1.47968  -1.47965  -1.38829  -1.38826
 Alpha  occ. eigenvalues --   -1.38686  -1.38686  -1.00925  -0.98770  -0.96604
 Alpha  occ. eigenvalues --   -0.91674  -0.91561  -0.87406  -0.86259  -0.85146
 Alpha  occ. eigenvalues --   -0.83166  -0.82013  -0.81809  -0.74809  -0.74806
 Alpha  occ. eigenvalues --   -0.72488  -0.71686  -0.70577  -0.70561  -0.70542
 Alpha  occ. eigenvalues --   -0.70306  -0.68732  -0.68285  -0.66112  -0.63649
 Alpha  occ. eigenvalues --   -0.61878  -0.60475  -0.59026  -0.58737  -0.58515
 Alpha  occ. eigenvalues --   -0.58364  -0.57405  -0.56652  -0.55697  -0.54883
 Alpha  occ. eigenvalues --   -0.54706  -0.54608  -0.54382  -0.52997  -0.52633
 Alpha  occ. eigenvalues --   -0.52609  -0.52463  -0.51683  -0.50753  -0.50694
 Alpha  occ. eigenvalues --   -0.49677  -0.49563  -0.48904  -0.47352  -0.46097
 Alpha  occ. eigenvalues --   -0.45939  -0.44320  -0.43895  -0.42830  -0.42263
 Alpha  occ. eigenvalues --   -0.40730  -0.40446  -0.36548  -0.34513  -0.32702
 Alpha  occ. eigenvalues --   -0.32520  -0.31806  -0.28477
 Alpha virt. eigenvalues --   -0.03704  -0.02401   0.00167   0.00269   0.01139
 Alpha virt. eigenvalues --    0.04579   0.07391   0.07917   0.08573   0.09455
 Alpha virt. eigenvalues --    0.10102   0.10806   0.11714   0.11946   0.12730
 Alpha virt. eigenvalues --    0.12968   0.13787   0.14021   0.14796   0.15253
 Alpha virt. eigenvalues --    0.15390   0.15523   0.16783   0.17293   0.17665
 Alpha virt. eigenvalues --    0.17965   0.18291   0.18986   0.20166   0.20665
 Alpha virt. eigenvalues --    0.21123   0.21527   0.22072   0.22471   0.22668
 Alpha virt. eigenvalues --    0.23272   0.23829   0.23861   0.24113   0.24791
 Alpha virt. eigenvalues --    0.24841   0.25063   0.25829   0.26015   0.26504
 Alpha virt. eigenvalues --    0.26677   0.27653   0.28465   0.28852   0.28996
 Alpha virt. eigenvalues --    0.29475   0.29626   0.29804   0.29877   0.30107
 Alpha virt. eigenvalues --    0.30185   0.30607   0.31112   0.31701   0.32041
 Alpha virt. eigenvalues --    0.33079   0.33086   0.33763   0.34466   0.34656
 Alpha virt. eigenvalues --    0.35050   0.35295   0.35961   0.36346   0.36864
 Alpha virt. eigenvalues --    0.36886   0.37283   0.37847   0.38486   0.38942
 Alpha virt. eigenvalues --    0.39109   0.39512   0.39918   0.40341   0.40596
 Alpha virt. eigenvalues --    0.41462   0.41666   0.42747   0.43391   0.43529
 Alpha virt. eigenvalues --    0.43960   0.44850   0.45026   0.45267   0.45556
 Alpha virt. eigenvalues --    0.45916   0.46276   0.47019   0.47680   0.48125
 Alpha virt. eigenvalues --    0.48166   0.48311   0.49554   0.50215   0.50673
 Alpha virt. eigenvalues --    0.51633   0.51906   0.52378   0.52721   0.53283
 Alpha virt. eigenvalues --    0.53666   0.54887   0.55083   0.55147   0.56065
 Alpha virt. eigenvalues --    0.57059   0.57466   0.57711   0.58312   0.59008
 Alpha virt. eigenvalues --    0.59209   0.60123   0.60166   0.61751   0.61817
 Alpha virt. eigenvalues --    0.63400   0.63799   0.63940   0.65102   0.65423
 Alpha virt. eigenvalues --    0.65968   0.67095   0.67342   0.67924   0.67959
 Alpha virt. eigenvalues --    0.69124   0.69476   0.70627   0.70738   0.71004
 Alpha virt. eigenvalues --    0.71740   0.72539   0.72836   0.73028   0.73140
 Alpha virt. eigenvalues --    0.73945   0.74811   0.75059   0.75179   0.75927
 Alpha virt. eigenvalues --    0.76359   0.76948   0.77011   0.77243   0.77801
 Alpha virt. eigenvalues --    0.77919   0.78639   0.79047   0.79462   0.80181
 Alpha virt. eigenvalues --    0.80359   0.80898   0.81606   0.82009   0.82826
 Alpha virt. eigenvalues --    0.82968   0.83525   0.83772   0.84084   0.85071
 Alpha virt. eigenvalues --    0.85503   0.86214   0.87574   0.87912   0.88590
 Alpha virt. eigenvalues --    0.89220   0.89437   0.90255   0.91431   0.91827
 Alpha virt. eigenvalues --    0.92159   0.92450   0.92662   0.92962   0.94629
 Alpha virt. eigenvalues --    0.95173   0.95506   0.95823   0.96000   0.97074
 Alpha virt. eigenvalues --    0.98261   0.98548   0.98695   0.99761   1.00575
 Alpha virt. eigenvalues --    1.00616   1.01432   1.02424   1.03517   1.03707
 Alpha virt. eigenvalues --    1.03953   1.04899   1.05297   1.06060   1.06631
 Alpha virt. eigenvalues --    1.06666   1.07536   1.08048   1.11405   1.11581
 Alpha virt. eigenvalues --    1.11927   1.12783   1.12851   1.14788   1.15521
 Alpha virt. eigenvalues --    1.16888   1.17756   1.19017   1.19054   1.19975
 Alpha virt. eigenvalues --    1.21128   1.21722   1.22648   1.22842   1.22969
 Alpha virt. eigenvalues --    1.24919   1.25111   1.26196   1.26439   1.27608
 Alpha virt. eigenvalues --    1.28381   1.29097   1.29211   1.29437   1.30979
 Alpha virt. eigenvalues --    1.31421   1.31569   1.32242   1.32466   1.33608
 Alpha virt. eigenvalues --    1.34125   1.34658   1.35943   1.36180   1.37172
 Alpha virt. eigenvalues --    1.38483   1.39064   1.39610   1.40519   1.41071
 Alpha virt. eigenvalues --    1.42217   1.42672   1.44248   1.44357   1.44682
 Alpha virt. eigenvalues --    1.46306   1.47679   1.48406   1.48621   1.49558
 Alpha virt. eigenvalues --    1.50544   1.52446   1.52548   1.54379   1.54485
 Alpha virt. eigenvalues --    1.54844   1.55079   1.57950   1.58214   1.59106
 Alpha virt. eigenvalues --    1.59713   1.59789   1.60518   1.60821   1.61387
 Alpha virt. eigenvalues --    1.61748   1.63309   1.64103   1.65211   1.66012
 Alpha virt. eigenvalues --    1.66533   1.66629   1.68167   1.69338   1.69965
 Alpha virt. eigenvalues --    1.70381   1.71377   1.72175   1.73062   1.73284
 Alpha virt. eigenvalues --    1.74391   1.74906   1.75706   1.76033   1.76816
 Alpha virt. eigenvalues --    1.77125   1.79004   1.79072   1.80633   1.81711
 Alpha virt. eigenvalues --    1.82680   1.83793   1.86298   1.88821   1.88964
 Alpha virt. eigenvalues --    1.89531   1.89723   1.90557   1.90939   1.91755
 Alpha virt. eigenvalues --    1.92267   1.93680   1.93722   1.94485   1.94761
 Alpha virt. eigenvalues --    1.97170   1.97689   1.98081   1.98267   1.99069
 Alpha virt. eigenvalues --    1.99963   2.00414   2.01281   2.01298   2.03867
 Alpha virt. eigenvalues --    2.04759   2.05245   2.05852   2.06459   2.06929
 Alpha virt. eigenvalues --    2.08481   2.08926   2.09516   2.09559   2.10633
 Alpha virt. eigenvalues --    2.12518   2.13061   2.13508   2.13823   2.16015
 Alpha virt. eigenvalues --    2.16204   2.16480   2.18129   2.18977   2.19020
 Alpha virt. eigenvalues --    2.20222   2.21324   2.21452   2.21461   2.23109
 Alpha virt. eigenvalues --    2.25629   2.25721   2.26133   2.27071   2.27192
 Alpha virt. eigenvalues --    2.27968   2.31105   2.32341   2.32819   2.33538
 Alpha virt. eigenvalues --    2.34116   2.35288   2.35819   2.37153   2.37244
 Alpha virt. eigenvalues --    2.39045   2.39714   2.40455   2.40737   2.42170
 Alpha virt. eigenvalues --    2.43218   2.43521   2.45587   2.45624   2.47365
 Alpha virt. eigenvalues --    2.47704   2.48701   2.49591   2.50381   2.50702
 Alpha virt. eigenvalues --    2.52082   2.52175   2.53467   2.53549   2.54210
 Alpha virt. eigenvalues --    2.55211   2.55801   2.57503   2.58330   2.58595
 Alpha virt. eigenvalues --    2.59840   2.60449   2.60989   2.62128   2.62978
 Alpha virt. eigenvalues --    2.63165   2.64122   2.64779   2.64911   2.65682
 Alpha virt. eigenvalues --    2.65772   2.66795   2.66862   2.67593   2.67799
 Alpha virt. eigenvalues --    2.68108   2.69329   2.69581   2.69690   2.70509
 Alpha virt. eigenvalues --    2.71513   2.71814   2.72875   2.73441   2.73987
 Alpha virt. eigenvalues --    2.74252   2.75440   2.75533   2.76622   2.76732
 Alpha virt. eigenvalues --    2.77338   2.78033   2.79277   2.79595   2.81171
 Alpha virt. eigenvalues --    2.82020   2.82184   2.82474   2.83123   2.83343
 Alpha virt. eigenvalues --    2.83640   2.83927   2.85142   2.85392   2.85456
 Alpha virt. eigenvalues --    2.86338   2.86997   2.87081   2.87728   2.88870
 Alpha virt. eigenvalues --    2.89503   2.90336   2.90578   2.90890   2.92046
 Alpha virt. eigenvalues --    2.92139   2.94422   2.95180   2.95412   2.96476
 Alpha virt. eigenvalues --    2.97129   2.98107   2.99432   2.99783   3.00194
 Alpha virt. eigenvalues --    3.01562   3.01668   3.01878   3.02485   3.04375
 Alpha virt. eigenvalues --    3.04629   3.05493   3.05676   3.06131   3.06952
 Alpha virt. eigenvalues --    3.08522   3.09265   3.09815   3.09943   3.11153
 Alpha virt. eigenvalues --    3.11764   3.12267   3.13727   3.13740   3.14569
 Alpha virt. eigenvalues --    3.14595   3.15149   3.15502   3.15722   3.16478
 Alpha virt. eigenvalues --    3.16824   3.17448   3.17536   3.18939   3.19003
 Alpha virt. eigenvalues --    3.20030   3.20089   3.21303   3.21473   3.22025
 Alpha virt. eigenvalues --    3.23037   3.23215   3.23640   3.23786   3.25159
 Alpha virt. eigenvalues --    3.25316   3.25346   3.26435   3.26719   3.27133
 Alpha virt. eigenvalues --    3.27848   3.28395   3.28846   3.29884   3.30297
 Alpha virt. eigenvalues --    3.30499   3.30727   3.31570   3.32005   3.32441
 Alpha virt. eigenvalues --    3.33107   3.33890   3.34379   3.34970   3.35147
 Alpha virt. eigenvalues --    3.37447   3.37554   3.37963   3.38154   3.39115
 Alpha virt. eigenvalues --    3.39913   3.40091   3.41070   3.41444   3.41772
 Alpha virt. eigenvalues --    3.42496   3.42575   3.42971   3.43035   3.44473
 Alpha virt. eigenvalues --    3.44624   3.45016   3.46182   3.46900   3.47826
 Alpha virt. eigenvalues --    3.48319   3.48773   3.49218   3.49356   3.50684
 Alpha virt. eigenvalues --    3.51303   3.52529   3.52893   3.52995   3.54341
 Alpha virt. eigenvalues --    3.54750   3.55280   3.57087   3.58061   3.58748
 Alpha virt. eigenvalues --    3.58973   3.59389   3.61141   3.61521   3.61758
 Alpha virt. eigenvalues --    3.62850   3.63947   3.64182   3.67646   3.68168
 Alpha virt. eigenvalues --    3.68474   3.70678   3.72389   3.73325   3.74079
 Alpha virt. eigenvalues --    3.74087   3.76176   3.76540   3.79033   3.79886
 Alpha virt. eigenvalues --    3.82308   3.82511   3.83440   3.84362   3.84551
 Alpha virt. eigenvalues --    3.85816   3.86201   3.86345   3.88154   3.90145
 Alpha virt. eigenvalues --    3.91550   3.92619   3.93399   3.94754   3.94806
 Alpha virt. eigenvalues --    3.95486   3.96102   3.96138   3.96552   3.97752
 Alpha virt. eigenvalues --    3.98437   3.99045   3.99301   3.99365   4.00257
 Alpha virt. eigenvalues --    4.01158   4.02612   4.03517   4.04437   4.04996
 Alpha virt. eigenvalues --    4.05729   4.07012   4.07215   4.08335   4.08822
 Alpha virt. eigenvalues --    4.09815   4.10962   4.11712   4.13651   4.14588
 Alpha virt. eigenvalues --    4.14951   4.15230   4.15596   4.16857   4.16910
 Alpha virt. eigenvalues --    4.18090   4.18224   4.18732   4.18926   4.19621
 Alpha virt. eigenvalues --    4.20548   4.20592   4.21391   4.22351   4.23645
 Alpha virt. eigenvalues --    4.24017   4.24520   4.27609   4.27685   4.29126
 Alpha virt. eigenvalues --    4.30300   4.30944   4.34554   4.34619   4.36798
 Alpha virt. eigenvalues --    4.37605   4.38437   4.40864   4.41027   4.46830
 Alpha virt. eigenvalues --    4.53659   4.54403   4.54498   4.57113   4.58024
 Alpha virt. eigenvalues --    4.59810   4.60015   4.61831   4.62134   4.63184
 Alpha virt. eigenvalues --    4.63398   4.65155   4.69169   4.70014   4.72094
 Alpha virt. eigenvalues --    4.73470   4.75708   4.83112   4.85275   4.86419
 Alpha virt. eigenvalues --    4.88223   4.88853   4.91330   4.92720   4.94249
 Alpha virt. eigenvalues --    4.96290   4.99800   5.01176   5.08404   5.15119
 Alpha virt. eigenvalues --    5.16383   5.16815   5.18452   5.19861   5.23177
 Alpha virt. eigenvalues --    5.25580   5.26448   5.33093   5.33112   5.34049
 Alpha virt. eigenvalues --    5.34765   5.39089   5.41378   5.43955   5.46500
 Alpha virt. eigenvalues --    5.47727   5.49035   5.51243   5.58069   5.61764
 Alpha virt. eigenvalues --    5.64122   5.78307   6.82178   6.82183   6.87026
 Alpha virt. eigenvalues --    6.87093   6.87234   6.87272   6.87546   6.87622
 Alpha virt. eigenvalues --    6.87673   6.87738   6.88239   6.88295   6.88531
 Alpha virt. eigenvalues --    6.88781   6.88834   6.89326   6.90059   6.90292
 Alpha virt. eigenvalues --    6.98410   6.98560   7.01167   7.01212   7.01720
 Alpha virt. eigenvalues --    7.01950   7.06550   7.06808   7.07238   7.07817
 Alpha virt. eigenvalues --    7.14316   7.14691   7.35593   7.35883   7.38495
 Alpha virt. eigenvalues --    7.38769   7.39079   7.40173   7.54954   7.55630
 Alpha virt. eigenvalues --    7.58746   7.59335   7.59432   7.59856   8.29146
 Alpha virt. eigenvalues --    8.29487   8.31096   8.31671   8.32413   8.32981
 Alpha virt. eigenvalues --    8.45739   8.45817   8.46333   8.46369   8.54511
 Alpha virt. eigenvalues --    8.56213   8.70020   8.70577   8.76905   8.77118
 Alpha virt. eigenvalues --    8.78000   8.78158   8.86030   8.86141   8.91994
 Alpha virt. eigenvalues --    8.92511   8.97267   8.97390   8.98395   8.98575
 Alpha virt. eigenvalues --    9.07202   9.08289   9.09872   9.10577  22.02572
 Alpha virt. eigenvalues --   22.34533  22.45412  22.67275  22.70603  22.78517
 Alpha virt. eigenvalues --   22.79790  22.82653  22.83708  22.85873  22.88701
 Alpha virt. eigenvalues --   22.91492  22.96835  23.02462  23.02639  23.07308
 Alpha virt. eigenvalues --   23.11442  23.28953  23.39325  23.52372  57.36494
 Alpha virt. eigenvalues --   57.38040  57.38734  57.39346  57.46553  57.54272
          Condensed to atoms (all electrons):
               1          2          3          4          5          6
     1  C    4.972017   0.505266  -0.059721  -0.038184  -0.059741   0.505210
     2  C    0.505266   5.009849   0.510727  -0.045196  -0.045390  -0.030443
     3  C   -0.059721   0.510727   4.895494   0.524803  -0.038640  -0.045402
     4  C   -0.038184  -0.045196   0.524803   4.872826   0.524770  -0.045189
     5  C   -0.059741  -0.045390  -0.038640   0.524770   4.895479   0.510792
     6  C    0.505210  -0.030443  -0.045402  -0.045189   0.510792   5.009815
     7  H   -0.038138   0.394665  -0.019688   0.002396  -0.000107   0.004913
     8  H    0.004539  -0.030647   0.407900  -0.030596   0.003462   0.000077
     9  H    0.000979   0.004219  -0.034382   0.410153  -0.034365   0.004217
    10  H    0.004539   0.000077   0.003462  -0.030599   0.407871  -0.030631
    11  H   -0.038134   0.004907  -0.000105   0.002395  -0.019675   0.394650
    12  C   -0.003218   0.000490  -0.000002  -0.000002  -0.000002   0.000489
    13  C    0.008929  -0.001330   0.000075  -0.000020  -0.000063   0.002046
    14  C   -0.079928   0.009247  -0.000717   0.000030   0.001712  -0.000462
    15  C    0.279827  -0.079125   0.005762  -0.003293   0.005764  -0.079124
    16  C   -0.079941  -0.000459   0.001710   0.000030  -0.000716   0.009248
    17  C    0.008937   0.002043  -0.000063  -0.000020   0.000075  -0.001331
    18  H   -0.000348   0.000341  -0.000120  -0.000060   0.000668   0.002566
    19  H   -0.000346   0.002570   0.000668  -0.000060  -0.000120   0.000340
    20  H   -0.000116   0.000023  -0.000000   0.000000  -0.000001   0.000019
    21  H   -0.000116   0.000019  -0.000001   0.000000  -0.000000   0.000023
    22  C   -0.000000  -0.000000  -0.000000   0.000000  -0.000000  -0.000000
    23  C   -0.000001   0.000000   0.000000  -0.000000   0.000000  -0.000000
    24  C    0.000005   0.000006   0.000000  -0.000000   0.000000   0.000001
    25  C   -0.001449   0.000030  -0.000001  -0.000000  -0.000001   0.000030
    26  C    0.000005   0.000001   0.000000  -0.000000   0.000000   0.000006
    27  C   -0.000001  -0.000000   0.000000  -0.000000   0.000000   0.000000
    28  H    0.000000  -0.000000  -0.000000   0.000000  -0.000000  -0.000000
    29  H   -0.000001   0.000001   0.000000  -0.000000   0.000000   0.000000
    30  H   -0.000001   0.000000   0.000000  -0.000000   0.000000   0.000001
    31  C   -0.000000   0.000000  -0.000000  -0.000000  -0.000000   0.000000
    32  F   -0.000000   0.000000  -0.000000   0.000000  -0.000000   0.000000
    33  F   -0.000000  -0.000000  -0.000000   0.000000  -0.000000   0.000000
    34  F   -0.000000  -0.000000  -0.000000  -0.000000  -0.000000   0.000000
    35  C   -0.000000   0.000000  -0.000000  -0.000000  -0.000000   0.000000
    36  F   -0.000000   0.000000  -0.000000   0.000000  -0.000000   0.000000
    37  F   -0.000000   0.000000  -0.000000   0.000000  -0.000000  -0.000000
    38  F   -0.000000   0.000000  -0.000000  -0.000000  -0.000000  -0.000000
               7          8          9         10         11         12
     1  C   -0.038138   0.004539   0.000979   0.004539  -0.038134  -0.003218
     2  C    0.394665  -0.030647   0.004219   0.000077   0.004907   0.000490
     3  C   -0.019688   0.407900  -0.034382   0.003462  -0.000105  -0.000002
     4  C    0.002396  -0.030596   0.410153  -0.030599   0.002395  -0.000002
     5  C   -0.000107   0.003462  -0.034365   0.407871  -0.019675  -0.000002
     6  C    0.004913   0.000077   0.004217  -0.030631   0.394650   0.000489
     7  H    0.487837  -0.003346  -0.000284   0.000064  -0.000233   0.000095
     8  H   -0.003346   0.505944  -0.003907  -0.000272   0.000064   0.000001
     9  H   -0.000284  -0.003907   0.513161  -0.003906  -0.000284  -0.000000
    10  H    0.000064  -0.000272  -0.003906   0.505961  -0.003350   0.000001
    11  H   -0.000233   0.000064  -0.000284  -0.003350   0.487835   0.000095
    12  C    0.000095   0.000001  -0.000000   0.000001   0.000095   4.991578
    13  C   -0.000203  -0.000001  -0.000000  -0.000001   0.000728   0.496814
    14  C    0.000628   0.000032  -0.000007   0.000039   0.002584  -0.042624
    15  C    0.004292  -0.000059   0.000111  -0.000059   0.004297  -0.022220
    16  C    0.002587   0.000039  -0.000007   0.000032   0.000628  -0.042663
    17  C    0.000727  -0.000001  -0.000000  -0.000001  -0.000203   0.496755
    18  H    0.000050   0.000002   0.000000   0.000051  -0.002059   0.001679
    19  H   -0.002059   0.000051   0.000000   0.000002   0.000050   0.001683
    20  H    0.000001   0.000000  -0.000000   0.000000   0.000032  -0.032765
    21  H    0.000032   0.000000  -0.000000   0.000000   0.000001  -0.032747
    22  C   -0.000000  -0.000000  -0.000000  -0.000000  -0.000000   0.000486
    23  C    0.000000   0.000000  -0.000000   0.000000   0.000000   0.008387
    24  C    0.000002   0.000000  -0.000000   0.000000   0.000000  -0.085989
    25  C    0.000004   0.000000  -0.000000   0.000000   0.000004   0.247317
    26  C    0.000000   0.000000  -0.000000   0.000000   0.000002  -0.086008
    27  C    0.000000   0.000000  -0.000000   0.000000   0.000000   0.008392
    28  H   -0.000000  -0.000000   0.000000  -0.000000  -0.000000   0.000215
    29  H    0.000001   0.000000  -0.000000   0.000000   0.000000   0.002664
    30  H    0.000000   0.000000  -0.000000   0.000000   0.000001   0.002671
    31  C    0.000000   0.000000  -0.000000   0.000000   0.000000  -0.000963
    32  F   -0.000000  -0.000000   0.000000  -0.000000  -0.000000  -0.000155
    33  F   -0.000000  -0.000000  -0.000000  -0.000000   0.000000   0.000327
    34  F   -0.000000   0.000000  -0.000000  -0.000000   0.000000   0.000002
    35  C    0.000000   0.000000  -0.000000   0.000000   0.000000  -0.000963
    36  F   -0.000000  -0.000000   0.000000  -0.000000  -0.000000  -0.000155
    37  F    0.000000  -0.000000  -0.000000  -0.000000  -0.000000   0.000327
    38  F    0.000000  -0.000000  -0.000000   0.000000  -0.000000   0.000002
              13         14         15         16         17         18
     1  C    0.008929  -0.079928   0.279827  -0.079941   0.008937  -0.000348
     2  C   -0.001330   0.009247  -0.079125  -0.000459   0.002043   0.000341
     3  C    0.000075  -0.000717   0.005762   0.001710  -0.000063  -0.000120
     4  C   -0.000020   0.000030  -0.003293   0.000030  -0.000020  -0.000060
     5  C   -0.000063   0.001712   0.005764  -0.000716   0.000075   0.000668
     6  C    0.002046  -0.000462  -0.079124   0.009248  -0.001331   0.002566
     7  H   -0.000203   0.000628   0.004292   0.002587   0.000727   0.000050
     8  H   -0.000001   0.000032  -0.000059   0.000039  -0.000001   0.000002
     9  H   -0.000000  -0.000007   0.000111  -0.000007  -0.000000   0.000000
    10  H   -0.000001   0.000039  -0.000059   0.000032  -0.000001   0.000051
    11  H    0.000728   0.002584   0.004297   0.000628  -0.000203  -0.002059
    12  C    0.496814  -0.042624  -0.022220  -0.042663   0.496755   0.001679
    13  C    5.058247   0.458674  -0.045412  -0.056540  -0.023548  -0.013294
    14  C    0.458674   5.046970   0.503622  -0.022250  -0.056578   0.387623
    15  C   -0.045412   0.503622   4.926109   0.503546  -0.045410  -0.029108
    16  C   -0.056540  -0.022250   0.503546   5.046988   0.458765   0.005341
    17  C   -0.023548  -0.056578  -0.045410   0.458765   5.058240  -0.000012
    18  H   -0.013294   0.387623  -0.029108   0.005341  -0.000012   0.478984
    19  H   -0.000014   0.005344  -0.029119   0.387636  -0.013288  -0.000219
    20  H    0.388843  -0.012724   0.001851  -0.000483   0.005250  -0.002487
    21  H    0.005244  -0.000481   0.001849  -0.012711   0.388807   0.000054
    22  C   -0.000237   0.000055  -0.000020   0.000055  -0.000237   0.000000
    23  C   -0.000847   0.000028   0.000059  -0.000492   0.005240   0.000000
    24  C    0.011658  -0.001051   0.000236   0.002121  -0.000655   0.000022
    25  C   -0.085408   0.009848  -0.005150   0.009855  -0.085416   0.000044
    26  C   -0.000656   0.002119   0.000236  -0.001050   0.011656   0.000041
    27  C    0.005241  -0.000492   0.000059   0.000028  -0.000845   0.000001
    28  H   -0.000008   0.000000  -0.000000   0.000000  -0.000008   0.000000
    29  H    0.000251  -0.000158   0.000084   0.000584   0.003347   0.000000
    30  H    0.003346   0.000583   0.000084  -0.000158   0.000252   0.000023
    31  C    0.000032  -0.000002   0.000001  -0.000015   0.000190   0.000000
    32  F   -0.000002   0.000000  -0.000000   0.000000   0.000012   0.000000
    33  F    0.000006  -0.000000   0.000000  -0.000006  -0.000282  -0.000000
    34  F    0.000000  -0.000000  -0.000000  -0.000000  -0.000001  -0.000000
    35  C    0.000190  -0.000015   0.000001  -0.000002   0.000032   0.000000
    36  F    0.000012   0.000000  -0.000000   0.000000  -0.000002  -0.000000
    37  F   -0.000282  -0.000006   0.000000  -0.000000   0.000006  -0.000000
    38  F   -0.000001  -0.000000  -0.000000  -0.000000   0.000000  -0.000000
              19         20         21         22         23         24
     1  C   -0.000346  -0.000116  -0.000116  -0.000000  -0.000001   0.000005
     2  C    0.002570   0.000023   0.000019  -0.000000   0.000000   0.000006
     3  C    0.000668  -0.000000  -0.000001  -0.000000   0.000000   0.000000
     4  C   -0.000060   0.000000   0.000000   0.000000  -0.000000  -0.000000
     5  C   -0.000120  -0.000001  -0.000000  -0.000000   0.000000   0.000000
     6  C    0.000340   0.000019   0.000023  -0.000000  -0.000000   0.000001
     7  H   -0.002059   0.000001   0.000032  -0.000000   0.000000   0.000002
     8  H    0.000051   0.000000   0.000000  -0.000000   0.000000   0.000000
     9  H    0.000000  -0.000000  -0.000000  -0.000000  -0.000000  -0.000000
    10  H    0.000002   0.000000   0.000000  -0.000000   0.000000   0.000000
    11  H    0.000050   0.000032   0.000001  -0.000000   0.000000   0.000000
    12  C    0.001683  -0.032765  -0.032747   0.000486   0.008387  -0.085989
    13  C   -0.000014   0.388843   0.005244  -0.000237  -0.000847   0.011658
    14  C    0.005344  -0.012724  -0.000481   0.000055   0.000028  -0.001051
    15  C   -0.029119   0.001851   0.001849  -0.000020   0.000059   0.000236
    16  C    0.387636  -0.000483  -0.012711   0.000055  -0.000492   0.002121
    17  C   -0.013288   0.005250   0.388807  -0.000237   0.005240  -0.000655
    18  H   -0.000219  -0.002487   0.000054   0.000000   0.000000   0.000022
    19  H    0.478979   0.000054  -0.002489   0.000000   0.000001   0.000041
    20  H    0.000054   0.477921  -0.000223  -0.000267   0.000039   0.000373
    21  H   -0.002489  -0.000223   0.477926  -0.000267   0.001123   0.001378
    22  C    0.000000  -0.000267  -0.000267   5.205590   0.370038  -0.032498
    23  C    0.000001   0.000039   0.001123   0.370038   5.214894   0.352120
    24  C    0.000041   0.000373   0.001378  -0.032498   0.352120   5.275795
    25  C    0.000044   0.000828   0.000829  -0.059591  -0.024313   0.438339
    26  C    0.000022   0.001380   0.000371  -0.032471  -0.062488  -0.029573
    27  C    0.000000   0.001122   0.000039   0.369959  -0.000292  -0.062481
    28  H    0.000000  -0.000002  -0.000002   0.394349  -0.026721   0.007915
    29  H    0.000023   0.000048  -0.001968   0.008080  -0.015720   0.372382
    30  H    0.000000  -0.001966   0.000048   0.008081  -0.000747   0.006761
    31  C    0.000000   0.000001   0.000151  -0.042775   0.453777  -0.037180
    32  F   -0.000000  -0.000000   0.000001   0.003126  -0.087792   0.002584
    33  F   -0.000000   0.000000   0.000244   0.003948  -0.077414   0.006639
    34  F   -0.000000  -0.000000   0.000000   0.011124  -0.080071   0.003959
    35  C    0.000000   0.000151   0.000001  -0.042787   0.004090   0.001352
    36  F    0.000000   0.000001  -0.000000   0.003123  -0.000621   0.000258
    37  F   -0.000000   0.000244   0.000000   0.003952  -0.000034  -0.000276
    38  F   -0.000000   0.000000  -0.000000   0.011129   0.002003  -0.000135
              25         26         27         28         29         30
     1  C   -0.001449   0.000005  -0.000001   0.000000  -0.000001  -0.000001
     2  C    0.000030   0.000001  -0.000000  -0.000000   0.000001   0.000000
     3  C   -0.000001   0.000000   0.000000  -0.000000   0.000000   0.000000
     4  C   -0.000000  -0.000000  -0.000000   0.000000  -0.000000  -0.000000
     5  C   -0.000001   0.000000   0.000000  -0.000000   0.000000   0.000000
     6  C    0.000030   0.000006   0.000000  -0.000000   0.000000   0.000001
     7  H    0.000004   0.000000   0.000000  -0.000000   0.000001   0.000000
     8  H    0.000000   0.000000   0.000000  -0.000000   0.000000   0.000000
     9  H   -0.000000  -0.000000  -0.000000   0.000000  -0.000000  -0.000000
    10  H    0.000000   0.000000   0.000000  -0.000000   0.000000   0.000000
    11  H    0.000004   0.000002   0.000000  -0.000000   0.000000   0.000001
    12  C    0.247317  -0.086008   0.008392   0.000215   0.002664   0.002671
    13  C   -0.085408  -0.000656   0.005241  -0.000008   0.000251   0.003346
    14  C    0.009848   0.002119  -0.000492   0.000000  -0.000158   0.000583
    15  C   -0.005150   0.000236   0.000059  -0.000000   0.000084   0.000084
    16  C    0.009855  -0.001050   0.000028   0.000000   0.000584  -0.000158
    17  C   -0.085416   0.011656  -0.000845  -0.000008   0.003347   0.000252
    18  H    0.000044   0.000041   0.000001   0.000000   0.000000   0.000023
    19  H    0.000044   0.000022   0.000000   0.000000   0.000023   0.000000
    20  H    0.000828   0.001380   0.001122  -0.000002   0.000048  -0.001966
    21  H    0.000829   0.000371   0.000039  -0.000002  -0.001968   0.000048
    22  C   -0.059591  -0.032471   0.369959   0.394349   0.008080   0.008081
    23  C   -0.024313  -0.062488  -0.000292  -0.026721  -0.015720  -0.000747
    24  C    0.438339  -0.029573  -0.062481   0.007915   0.372382   0.006761
    25  C    5.070347   0.438190  -0.024288   0.000606  -0.026269  -0.026273
    26  C    0.438190   5.276003   0.352091   0.007913   0.006768   0.372393
    27  C   -0.024288   0.352091   5.214946  -0.026715  -0.000749  -0.015723
    28  H    0.000606   0.007913  -0.026715   0.459285  -0.000155  -0.000156
    29  H   -0.026269   0.006768  -0.000749  -0.000155   0.453172  -0.000161
    30  H   -0.026273   0.372393  -0.015723  -0.000156  -0.000161   0.453174
    31  C    0.002661   0.001351   0.004089  -0.007140  -0.003642   0.000046
    32  F   -0.001038   0.000259  -0.000624   0.000166   0.000534   0.000000
    33  F    0.001371  -0.000276  -0.000034   0.000178   0.006665  -0.000001
    34  F   -0.000362  -0.000136   0.002004   0.006893   0.000266  -0.000000
    35  C    0.002664  -0.037183   0.453770  -0.007144   0.000046  -0.003641
    36  F   -0.001034   0.002574  -0.087785   0.000165   0.000000   0.000534
    37  F    0.001365   0.006646  -0.077441   0.000178  -0.000001   0.006666
    38  F   -0.000362   0.003962  -0.080077   0.006895  -0.000000   0.000266
              31         32         33         34         35         36
     1  C   -0.000000  -0.000000  -0.000000  -0.000000  -0.000000  -0.000000
     2  C    0.000000   0.000000  -0.000000  -0.000000   0.000000   0.000000
     3  C   -0.000000  -0.000000  -0.000000  -0.000000  -0.000000  -0.000000
     4  C   -0.000000   0.000000   0.000000  -0.000000  -0.000000   0.000000
     5  C   -0.000000  -0.000000  -0.000000  -0.000000  -0.000000  -0.000000
     6  C    0.000000   0.000000   0.000000   0.000000   0.000000   0.000000
     7  H    0.000000  -0.000000  -0.000000  -0.000000   0.000000  -0.000000
     8  H    0.000000  -0.000000  -0.000000   0.000000   0.000000  -0.000000
     9  H   -0.000000   0.000000  -0.000000  -0.000000  -0.000000   0.000000
    10  H    0.000000  -0.000000  -0.000000  -0.000000   0.000000  -0.000000
    11  H    0.000000  -0.000000   0.000000   0.000000   0.000000  -0.000000
    12  C   -0.000963  -0.000155   0.000327   0.000002  -0.000963  -0.000155
    13  C    0.000032  -0.000002   0.000006   0.000000   0.000190   0.000012
    14  C   -0.000002   0.000000  -0.000000  -0.000000  -0.000015   0.000000
    15  C    0.000001  -0.000000   0.000000  -0.000000   0.000001  -0.000000
    16  C   -0.000015   0.000000  -0.000006  -0.000000  -0.000002   0.000000
    17  C    0.000190   0.000012  -0.000282  -0.000001   0.000032  -0.000002
    18  H    0.000000   0.000000  -0.000000  -0.000000   0.000000  -0.000000
    19  H    0.000000  -0.000000  -0.000000  -0.000000   0.000000   0.000000
    20  H    0.000001  -0.000000   0.000000  -0.000000   0.000151   0.000001
    21  H    0.000151   0.000001   0.000244   0.000000   0.000001  -0.000000
    22  C   -0.042775   0.003126   0.003948   0.011124  -0.042787   0.003123
    23  C    0.453777  -0.087792  -0.077414  -0.080071   0.004090  -0.000621
    24  C   -0.037180   0.002584   0.006639   0.003959   0.001352   0.000258
    25  C    0.002661  -0.001038   0.001371  -0.000362   0.002664  -0.001034
    26  C    0.001351   0.000259  -0.000276  -0.000136  -0.037183   0.002574
    27  C    0.004089  -0.000624  -0.000034   0.002004   0.453770  -0.087785
    28  H   -0.007140   0.000166   0.000178   0.006893  -0.007144   0.000165
    29  H   -0.003642   0.000534   0.006665   0.000266   0.000046   0.000000
    30  H    0.000046   0.000000  -0.000001  -0.000000  -0.003641   0.000534
    31  C    4.097439   0.350501   0.334380   0.334552  -0.000132  -0.000006
    32  F    0.350501   8.992213  -0.046906  -0.046732  -0.000006  -0.000000
    33  F    0.334380  -0.046906   8.991141  -0.044705  -0.000001  -0.000000
    34  F    0.334552  -0.046732  -0.044705   8.986695  -0.000067   0.000000
    35  C   -0.000132  -0.000006  -0.000001  -0.000067   4.097445   0.350502
    36  F   -0.000006  -0.000000  -0.000000   0.000000   0.350502   8.992216
    37  F   -0.000001  -0.000000  -0.000000  -0.000000   0.334400  -0.046906
    38  F   -0.000067   0.000000  -0.000000   0.000001   0.334551  -0.046724
              37         38
     1  C   -0.000000  -0.000000
     2  C    0.000000   0.000000
     3  C   -0.000000  -0.000000
     4  C    0.000000  -0.000000
     5  C   -0.000000  -0.000000
     6  C   -0.000000  -0.000000
     7  H    0.000000   0.000000
     8  H   -0.000000  -0.000000
     9  H   -0.000000  -0.000000
[...]
 00476339,0.00907757,0.00103582,-0.00366640,0.00653017,-0.00125731,-0.0
 0013775,-0.00104316,0.00020176,-0.00006311,0.00034784,0.00078021,-0.00
 094081,0.00085502,0.00138019,-0.00060961,0.00172468,0.00076229,0.00036
 574,-0.00026521,0.00020770,0.00001328,0.00008208,-0.27739189,0.0122296
 3,0.05781154,-0.02835642,0.04449438,0.01357832,-0.06631174,-0.00184509
 ,-0.03427504,0.40899205,0.00006224,0.00001010,-0.00000718,-0.00003820,
 -0.00000355,0.00002649,0.00000031,-0.00000811,0.00000238,-0.00002611,-
 0.00000100,0.00000282,-0.00000148,0.00001279,-0.00000483,-0.00003214,-
 0.00000416,-0.00000649,0.00001082,-0.00000833,0.00000253,-0.00001009,-
 0.00000039,-0.00000425,-0.00000520,-0.00000173,-0.00000045,-0.00000518
 ,-0.00000359,0.00000311,0.00000674,0.00000509,-0.00001037,0.00014052,-
 0.00019461,0.00007747,-0.00011511,0.00003807,-0.00004107,-0.00003170,0
 .00000008,-0.00002170,-0.00000472,-0.00000575,-0.00000708,-0.00004805,
 0.00002757,0.00003297,-0.00006712,0.00000841,0.00005782,-0.00001973,-0
 .00000789,0.00001322,-0.00002274,-0.00001172,-0.00000792,0.00002779,-0
 .00002000,-0.00002671,0.00003495,-0.00002151,0.00002133,0.00006364,-0.
 00083854,0.00186947,-0.01784467,0.00898150,0.00611256,0.00092307,-0.00
 031640,0.00275671,-0.00058447,-0.00097473,0.00012699,-0.00080130,-0.00
 000614,0.00004363,-0.00019290,0.00047344,-0.00064626,-0.00124075,-0.00
 071366,0.00069753,-0.00016501,0.00011416,-0.00007104,-0.00005764,-0.00
 002526,-0.00002110,0.01751174,-0.07861333,-0.00023641,0.06172318,-0.03
 144863,-0.01875396,-0.00331162,0.01256541,0.00063536,-0.05586578,0.090
 91509,-0.00010955,-0.00001070,0.00001955,0.00006163,0.00000927,-0.0000
 3308,-0.00000134,0.00002090,-0.00000486,0.00004604,0.00000438,-0.00000
 285,0.00000233,-0.00001884,0.00000976,0.00006069,0.00001178,0.00001646
 ,-0.00001967,0.00000585,-0.00001366,0.00001627,-0.00000465,0.00000481,
 0.00001052,0.00000011,-0.00000190,0.00001007,0.00000388,-0.00000889,-0
 .00001346,-0.00001512,0.00001460,-0.00027446,0.00021143,-0.00046099,0.
 00027338,-0.00000830,0.00009947,0.00007513,0.00000690,0.00001949,-0.00
 001676,-0.00000146,-0.00000725,0.00005467,-0.00002378,-0.00003244,0.00
 011923,0.00004152,-0.00014528,0.00003909,0.00000396,-0.00001993,0.0000
 4921,0.00000792,0.00001163,-0.00003680,0.00001361,0.00005723,-0.000035
 47,-0.00000569,-0.00005417,0.00043045,0.00057067,-0.00123973,0.0344447
 8,-0.00110480,-0.00002413,-0.00101878,0.00381572,-0.00479092,0.0015286
 8,0.00010442,0.00021930,0.00053213,0.00013174,-0.00020573,0.00052070,-
 0.00030359,0.00048276,0.00182293,0.00081263,-0.00191880,0.00018020,-0.
 00024084,-0.00000292,0.00005142,-0.00000080,-0.00003481,0.04941494,0.0
 0174850,-0.09493066,0.01434175,-0.01420440,0.00823019,-0.05137937,0.00
 102785,0.00294993,-0.05126017,0.00744297,0.09171493,-0.00032812,-0.000
 03568,0.00006245,0.00017819,0.00000834,-0.00008338,-0.00000341,0.00005
 430,-0.00002651,0.00013407,0.00001361,-0.00001176,0.00000835,-0.000060
 21,0.00003557,0.00017388,0.00004144,0.00003092,-0.00006113,0.00003026,
 -0.00003623,0.00004280,-0.00001102,0.00002126,0.00003843,0.00000212,-0
 .00000376,0.00003096,0.00001737,-0.00002939,-0.00004889,-0.00004797,0.
 00004872,-0.00058631,0.00018166,-0.00054863,0.00020212,-0.00024110,-0.
 00017415,0.00013764,0.00002267,0.00028220,-0.00011021,0.00001394,0.000
 03924,0.00021099,-0.00003735,-0.00020336,-0.00000103,0.00011247,-0.000
 06761,0.00003975,0.00001212,-0.00006144,0.00006698,0.00000797,0.000050
 98,-0.00019109,0.00019767,0.00029888,-0.00009928,-0.00006482,-0.000120
 58,0.01712624,-0.00087550,-0.00105920,0.00070859,-0.00450829,0.0063919
 2,-0.00170950,-0.00178415,0.00270971,-0.00637365,-0.00062399,0.0004577
 4,-0.01889547,0.01512555,-0.02005989,-0.13925229,0.03580331,-0.0484595
 2,-0.00109243,-0.00196631,0.00334086,-0.00031080,-0.00003930,0.0001078
 4,-0.00145360,0.00005698,-0.00010653,0.00548739,0.00239769,-0.00271455
 ,-0.00089370,-0.00163610,0.00072017,-0.00062493,-0.00073815,0.00165753
 ,-0.00248831,-0.00025746,0.00083422,0.59802387,0.00027529,0.00000314,-
 0.00003354,-0.00012514,-0.00001219,0.00004858,0.00000853,-0.00005200,0
 .00002120,-0.00010927,-0.00001960,0.00000822,-0.00000424,0.00002358,-0
 .00000910,-0.00018790,-0.00001996,-0.00008176,0.00003964,-0.00001271,0
 .00004097,-0.00002591,0.00001135,-0.00000688,-0.00002169,0.00000552,0.
 00000875,-0.00003925,-0.00000251,0.00002939,0.00003347,0.00005243,-0.0
 0001169,0.00049807,0.00050230,-0.00058432,-0.00021827,-0.00014656,-0.0
 0007056,-0.00021741,-0.00013390,-0.00010685,-0.00002685,0.00001864,0.0
 0004352,-0.00010623,-0.00000345,0.00007849,-0.00045464,-0.00030181,0.0
 0019071,-0.00008597,0.00004343,0.00005529,-0.00010455,0.00002716,-0.00
 003985,0.00018118,0.00014191,-0.00012320,0.00012827,0.00012980,0.00010
 408,0.00892603,-0.00580443,0.01052224,-0.00172426,0.00351135,0.0044426
 3,-0.00247343,-0.00077496,-0.00044050,-0.00268537,0.00620449,0.0009717
 9,0.00436592,0.00466911,-0.00552225,0.03234666,-0.10527455,0.04796286,
 0.00002742,-0.00226338,-0.00088273,-0.00003867,-0.00055012,-0.00026750
 ,-0.00172155,-0.00167639,-0.00081960,-0.00052404,-0.00063113,0.0029417
 5,0.00026284,0.00062272,-0.00058038,-0.00015918,-0.00000271,-0.0009996
 2,0.00049234,0.00024378,-0.00082613,-0.01461124,0.54672173,-0.00033867
 ,-0.00003101,-0.00003066,0.00015549,-0.00000702,-0.00008130,-0.0000114
 0,0.00005825,-0.00003536,0.00013576,0.00001233,-0.00002409,0.00000677,
 -0.00005644,-0.00000243,0.00022870,-0.00001783,0.00007616,-0.00005337,
 0.00003937,-0.00003475,0.00002983,0.00000062,0.00001810,0.00002684,0.0
 0000845,0.00000097,0.00005071,0.00002676,-0.00002022,-0.00004047,-0.00
 001244,0.00005401,-0.00081635,-0.00036386,0.00107423,0.00073905,0.0000
 5266,0.00061610,0.00016498,0.00013090,-0.00007792,0.00001612,-0.000003
 42,0.00003153,0.00014964,-0.00004645,-0.00028218,0.00073836,0.00019547
 ,-0.00027416,0.00021263,-0.00001446,-0.00006369,0.00011089,0.00000830,
 0.00003318,0.00007180,-0.00012052,0.00018762,-0.00019210,-0.00007765,-
 0.00029697,-0.01203772,0.01264022,-0.01521812,0.00191422,0.00478003,-0
 .00009246,0.00310201,-0.00008590,-0.00038041,0.00301389,0.00147076,0.0
 0450311,-0.00815875,-0.00671342,0.00680692,-0.04721166,0.04987946,-0.1
 3769191,-0.00008022,-0.00144438,-0.00084411,0.00004109,-0.00029212,-0.
 00040789,0.00313665,-0.00041923,-0.00084884,0.00042055,0.00294093,-0.0
 0236600,-0.00009438,-0.00139929,0.00037411,-0.00004085,-0.00054465,0.0
 0110360,-0.00047363,-0.00064182,0.00077647,0.02826673,-0.03702217,0.57
 743890,0.00008306,0.00001137,-0.00001174,-0.00004563,-0.00000160,0.000
 02173,0.00000154,-0.00001502,0.00000647,-0.00003482,-0.00000413,0.0000
 0390,-0.00000289,0.00001523,-0.00000842,-0.00004619,-0.00000839,-0.000
 01114,0.00001539,-0.00000767,0.00000975,-0.00001047,0.00000280,-0.0000
 0501,-0.00000946,-0.00000044,0.00000102,-0.00000897,-0.00000445,0.0000
 0767,0.00001257,0.00001139,-0.00001235,0.00011235,0.00006642,0.0000360
 8,-0.00008207,0.00005103,-0.00000395,-0.00003453,-0.00002087,-0.000052
 49,0.00002731,-0.00000137,-0.00001539,-0.00005938,-0.00000552,0.000059
 92,-0.00002684,-0.00002678,0.00004267,-0.00001706,-0.00000207,0.000015
 88,-0.00002094,-0.00000142,-0.00001230,0.00003013,-0.00002428,-0.00006
 409,0.00002681,0.00002634,0.00003494,-0.00273405,0.00055024,0.00154292
 ,-0.00086593,0.00000961,-0.00181989,0.00071112,0.00068611,-0.00081331,
 0.00116966,-0.00076006,0.00050011,0.00007268,0.00006443,-0.00019599,0.
 00670923,0.02544116,-0.00258225,0.00000988,0.00059014,-0.00012263,0.00
 004822,0.00004740,0.00001462,0.00020435,-0.00010793,0.00006221,-0.0010
 8180,-0.00072839,0.00069398,0.00015194,0.00031562,-0.00015627,0.000120
 03,0.00020828,-0.00048480,0.00051833,0.00006920,-0.00022689,-0.0802109
 2,0.02442548,-0.00092455,0.07830322,-0.00015543,-0.00001522,0.00002404
 ,0.00007632,0.00000862,-0.00003123,-0.00000310,0.00003176,-0.00001168,
 0.00006495,0.00001156,-0.00000434,0.00000298,-0.00001399,0.00000864,0.
 00010661,0.00001536,0.00004713,-0.00002517,0.00000706,-0.00002489,0.00
 001613,-0.00000694,0.00000448,0.00001372,-0.00000328,-0.00000516,0.000
 02253,0.00000160,-0.00001786,-0.00002072,-0.00003331,0.00000614,-0.000
 35557,-0.00015344,0.00024944,0.00013856,0.00001092,-0.00005623,0.00013
 128,0.00009298,0.00008888,0.00000210,-0.00000356,-0.00001588,0.0000876
 9,0.00002357,-0.00007266,0.00027062,0.00011461,-0.00007378,0.00004417,
 -0.00002562,-0.00003310,0.00005926,-0.00001295,0.00002658,-0.00007004,
 -0.00006408,0.00009692,-0.00006419,-0.00009935,-0.00007597,0.00374344,
 -0.00048186,-0.00049411,0.00062332,0.00084540,0.00193848,0.00042899,-0
 .00058037,0.00033130,0.00005625,0.00100534,0.00155484,-0.00197297,-0.0
 0096373,0.00222661,0.00755128,-0.04111921,-0.00036806,-0.00012855,-0.0
 0083930,-0.00096697,0.00002441,-0.00019030,-0.00017677,0.00070500,-0.0
 0107302,-0.00112057,0.00097290,0.00078328,-0.00160018,-0.00013621,-0.0
 0041685,0.00032004,0.00001876,-0.00018791,0.00104838,-0.00045304,-0.00
 010984,0.00048652,0.02567038,-0.27794158,-0.01611353,-0.00871844,0.402
 54717,0.00006574,0.00000861,0.00000519,-0.00003015,0.00000174,0.000016
 11,0.00000120,-0.00001203,0.00000718,-0.00002644,-0.00000184,0.0000045
 0,-0.00000008,0.00001096,-0.00000045,-0.00004438,0.00000265,-0.0000139
 3,0.00001122,-0.00000827,0.00000710,-0.00000585,-0.00000014,-0.0000037
 0,-0.00000561,-0.00000202,-0.00000054,-0.00000994,-0.00000557,0.000003
 99,0.00000813,0.00000290,-0.00001068,0.00020352,0.00003435,-0.00008539
 ,-0.00013223,-0.00000808,-0.00009594,-0.00003458,-0.00002394,0.0000071
 5,0.00000183,-0.00000027,-0.00000352,-0.00002242,0.00000922,0.00006596
 ,-0.00010168,-0.00002698,0.00001946,-0.00003911,0.00000429,0.00001216,
 -0.00001603,-0.00000086,-0.00000731,-0.00000751,0.00002168,-0.00004221
 ,0.00003759,0.00001454,0.00006398,-0.00049355,-0.00046483,0.00094070,-
 0.00043730,-0.00088883,-0.00038255,-0.00033851,0.00021119,-0.00023869,
 0.00022933,-0.00057680,-0.00078366,0.00089504,0.00143177,-0.00039422,-
 0.00556871,0.02045498,0.00877090,0.00005624,0.00031497,0.00010662,0.00
 001829,0.00006356,0.00008876,-0.00045675,0.00023453,0.00007633,-0.0003
 0226,-0.00057843,0.00040145,0.00004587,0.00029226,-0.00006785,0.000050
 39,0.00013035,-0.00020979,0.00016205,0.00011392,-0.00012966,-0.0009093
 7,-0.01546883,-0.07762396,-0.00460409,0.06462063,0.08962859,0.00005624
 ,0.00000710,-0.00002148,-0.00003406,-0.00000337,0.00001613,-0.00000044
 ,-0.00000960,0.00000361,-0.00002431,-0.00000270,0.00000118,-0.00000177
 ,0.00001090,-0.00000990,-0.00002669,-0.00001288,-0.00000319,0.00001137
 ,-0.00000447,0.00000667,-0.00000890,0.00000309,-0.00000378,-0.00000770
 ,0.00000036,0.00000110,-0.00000424,-0.00000196,0.00000630,0.00000982,0
 .00001256,-0.00000755,0.00002884,-0.00005303,0.00003869,0.00003633,0.0
 0007764,0.00011442,-0.00003383,-0.00000469,-0.00009265,0.00003273,-0.0
 0000200,-0.00000189,-0.00005225,-0.00000157,0.00000240,-0.00000319,-0.
 00001015,0.00003238,0.00000878,-0.00000424,0.00001138,-0.00001450,-0.0
 0000309,-0.00001052,0.00008634,-0.00006973,-0.00004978,0.00000378,0.00
 001126,-0.00000724,-0.00209642,-0.00054933,-0.00033403,0.00003793,0.00
 099671,-0.00093660,0.00039306,0.00041948,-0.00050550,0.00148834,-0.000
 49082,0.00005354,-0.00211930,-0.00084260,-0.00078725,0.01079273,0.0021
 6649,-0.01372681,0.00006254,0.00025385,-0.00056257,0.00007011,0.000087
 18,-0.00005463,0.00041156,0.00099044,-0.00099794,-0.00095353,-0.000256
 24,0.00059076,0.00017571,0.00027917,-0.00016301,0.00010512,0.00008280,
 -0.00020294,0.00045574,0.00002158,-0.00013787,-0.08982488,0.00410664,0
 .04434894,0.00845267,0.01375727,0.01632782,0.11678762,-0.00005105,-0.0
 0000405,0.00000784,0.00002390,0.00000231,-0.00000997,-0.00000099,0.000
 01096,-0.00000450,0.00002102,0.00000329,-0.00000132,0.00000023,-0.0000
 0427,0.00000250,0.00003626,0.00000387,0.00001656,-0.00000802,0.0000026
 3,-0.00000832,0.00000507,-0.00000233,0.00000129,0.00000439,-0.00000109
 ,-0.00000173,0.00000777,0.00000047,-0.00000587,-0.00000674,-0.00001089
 ,0.00000248,-0.00009278,-0.00000929,0.00002115,0.00002816,0.00001963,-
 0.00000720,0.00004771,0.00003309,0.00003268,-0.00000221,-0.00000186,-0
 .00000804,0.00002305,0.00000288,-0.00002620,0.00004684,0.00004543,-0.0
 0001857,0.00001413,-0.00001016,-0.00001088,0.00001637,-0.00000551,0.00
 000831,-0.00004701,-0.00004606,0.00002894,-0.00002169,-0.00002957,-0.0
 0002233,0.00108259,0.00107091,-0.00014637,0.00080723,-0.00106266,-0.00
 003137,-0.00032347,-0.00023635,0.00056253,-0.00037208,-0.00012666,-0.0
 0061652,-0.00001353,-0.00017245,0.00114677,-0.00179044,0.00857918,0.01
 716431,-0.00010052,0.00033902,0.00007816,-0.00000939,0.00005031,0.0000
 0942,0.00042556,-0.00002592,0.00007148,0.00043969,0.00010765,-0.000611
 01,-0.00010857,-0.00019441,0.00014342,-0.00000467,-0.00002396,0.000228
 88,-0.00019624,-0.00002753,0.00015271,0.00397155,-0.07526904,-0.007077
 63,0.01811143,-0.02897404,-0.06251282,-0.01188897,0.08499227,0.0001467
 7,0.00001001,0.00002105,-0.00006439,0.00000586,0.00003358,0.00000658,-
 0.00002452,0.00001673,-0.00005839,-0.00000502,0.00001193,-0.00000358,0
 .00002531,0.00000588,-0.00010379,0.00001555,-0.00003562,0.00002132,-0.
 00001811,0.00001428,-0.00001111,-0.00000183,-0.00000771,-0.00001023,-0
 .00000420,-0.00000084,-0.00002388,-0.00001315,0.00000729,0.00001740,-0
 .00000013,-0.00002577,0.00044105,0.00007730,-0.00018640,-0.00040061,-0
 .00004465,-0.00038411,-0.00006116,-0.00005739,0.00006784,-0.00001943,-
 0.00000220,-0.00001924,-0.00005285,0.00003803,0.00015913,-0.00021312,-
 0.00011013,0.00011644,-0.00011047,0.00000591,0.00002652,-0.00004084,0.
 00000039,-0.00001193,-0.00003280,0.00007455,-0.00009664,0.00009245,0.0
 0003046,0.00013377,-0.00715179,-0.00014959,-0.00277955,0.00057964,0.00
 229593,-0.00062295,-0.00037968,-0.00006561,-0.00060807,0.00023142,0.00
 088097,0.00039604,0.00283847,0.00184596,-0.00053814,0.01339861,0.00076
 736,-0.04702630,0.00012477,-0.00095161,0.00013827,-0.00006810,-0.00013
 814,-0.00000688,-0.00167199,-0.00100678,-0.00101802,-0.00099932,-0.001
 25329,0.00132196,0.00018898,0.00108728,-0.00025924,-0.00004254,0.00023
 513,-0.00081810,0.00020547,0.00029446,-0.00035776,0.03796386,-0.006257
 91,-0.27555116,0.01487488,-0.04504618,-0.03223567,-0.10336439,0.038298
 59,0.37758866,0.00017385,0.00001694,-0.00002640,-0.00009761,-0.0000035
 8,0.00004617,0.00000524,-0.00002559,0.00001324,-0.00007054,-0.00000797
 ,0.00000862,-0.00000758,0.00003443,-0.00001801,-0.00008957,-0.00001955
 ,-0.00001473,0.00003196,-0.00001787,0.00001660,-0.00002309,0.00000515,
 -0.00001184,-0.00002000,-0.00000204,0.00000145,-0.00001542,-0.00001012
 ,0.00001430,0.00002528,0.00002207,-0.00002813,0.00013602,0.00050092,-0
 .00070909,-0.00008979,0.00007213,0.00003376,-0.00007351,-0.00001483,-0
 .00010855,0.00006000,0.00000322,-0.00001674,-0.00011638,-0.00003197,0.
 00000397,-0.00028643,-0.00005441,0.00020123,-0.00002882,-0.00001229,0.
 00003341,-0.00006176,-0.00001309,-0.00002010,0.00009154,-0.00008728,-0
 .00011082,0.00005322,0.00002648,0.00003725,-0.00173977,-0.00174073,0.0
 0341951,0.00031018,0.00083717,-0.00069126,-0.00016622,0.00006583,-0.00
 035942,-0.00142324,0.00004051,0.00134666,-0.00113823,0.00439507,-0.007
 81664,-0.04491098,-0.01548210,-0.00022862,0.00004835,0.00096543,-0.002
 26778,0.00015452,0.00002451,-0.00011709,0.00077159,-0.00028173,0.00011
 483,-0.00221461,-0.00116613,0.00125177,0.00038486,0.00064975,-0.000304
 33,0.00033874,0.00030482,-0.00041432,0.00122060,0.00015338,-0.00038988
 ,-0.27805031,-0.05045275,-0.01660754,-0.01148850,-0.04248549,-0.004527
 73,-0.04430132,-0.01007459,0.04375279,0.38260772,-0.00003191,0.0000019
 1,0.00000055,0.00001291,0.00000137,-0.00000451,-0.00000192,0.00000733,
 -0.00000223,0.00001298,0.00000314,-0.00000155,0.00000120,-0.00000141,-
 0.00000128,0.00002644,-0.00000055,0.00001588,-0.00000334,0.00000034,-0
 .00000563,0.00000197,-0.00000142,-0.00000024,0.00000147,-0.00000123,-0
 .00000144,0.00000625,-0.00000045,-0.00000385,-0.00000364,-0.00000592,-
 0.00000031,-0.00005837,-0.00012540,-0.00002634,0.00006372,0.00003769,0
 .00005150,0.00003326,0.00003420,0.00000096,0.00001604,-0.00000407,-0.0
 0000879,0.00000680,-0.00000015,-0.00002983,0.00004175,0.00004913,-0.00
 002834,0.00001759,-0.00000895,-0.00000669,0.00001203,-0.00000579,0.000
 00486,-0.00000729,-0.00004559,0.00000712,-0.00001928,-0.00002100,-0.00
 001459,0.00016705,-0.00117264,0.00257318,0.00002738,0.00067614,-0.0008
 2788,0.00077295,0.00016491,-0.00019692,0.00053566,-0.00084572,0.000242
 10,-0.00046846,0.00036203,0.00146920,0.00864751,0.00967456,0.00229760,
 0.00156069,-0.00027020,-0.00000746,0.00008901,-0.00000912,-0.00005736,
 0.00028210,0.00009406,-0.00008141,-0.00036781,0.00006538,-0.00045702,0
 .00005309,-0.00000087,0.00006842,0.00011436,0.00003243,0.00022221,0.00
 013215,-0.00002910,0.00013387,-0.05620274,-0.09203945,0.00026073,-0.06
 026486,-0.05218950,-0.00739854,-0.00907306,0.01097420,0.00916137,0.113
 86632,0.12459973,0.00007729,0.00000719,0.00000183,-0.00003788,0.000000
 74,0.00001954,0.00000260,-0.00001332,0.00000736,-0.00003172,-0.0000033
 1,0.00000521,-0.00000250,0.00001363,-0.00000093,-0.00005059,0.00000119
 ,-0.00001674,0.00001241,-0.00000840,0.00000797,-0.00000764,0.00000053,
 -0.00000422,-0.00000658,-0.00000146,0.00000014,-0.00001086,-0.00000550
 ,0.00000527,0.00000990,0.00000474,-0.00001191,0.00010178,0.00015270,-0
 .00036417,-0.00013895,-0.00000075,-0.00012709,-0.00004040,-0.00003301,
 0.00000214,0.00000226,0.00000102,-0.00000795,-0.00004698,-0.00000017,0
 .00003568,-0.00018459,-0.00004985,0.00011560,-0.00004147,0.00000114,0.
 00001532,-0.00003036,-0.00000166,-0.00000718,0.00000500,0.00001955,-0.
 00003842,0.00003463,0.00001705,0.00004210,-0.00043215,0.00085669,-0.00
 191833,-0.00041421,-0.00059002,0.00075192,-0.00057249,0.00000527,-0.00
 000912,-0.00118156,-0.00018297,0.00025506,-0.00052135,0.00298527,-0.00
 329486,-0.02418461,-0.00481077,0.00728469,-0.00239930,0.00021580,-0.00
 103074,-0.00009234,-0.00001663,0.00000252,-0.00030004,-0.00021914,0.00
 000771,-0.00001059,-0.00072956,0.00067987,0.00001598,0.00039165,-0.000
 10445,-0.00004562,0.00010715,-0.00030046,0.00004942,0.00017487,-0.0002
 0616,-0.00864493,0.00268492,-0.08084639,-0.00580119,-0.00676992,0.0121
 0361,0.06042619,0.01314264,-0.01746926,-0.01550654,-0.00734731,0.08441
 486\\-0.00000040,-0.00000007,0.00000007,-0.00000040,0.00000122,0.00000
 075,-0.00000003,0.00000114,0.00000091,0.00000028,0.,0.,-0.00000006,-0.
 00000113,-0.00000093,-0.00000025,-0.00000126,-0.00000071,-0.00000005,0
 .00000243,0.00000186,-0.00000011,0.00000241,0.00000186,-0.00000002,0.,
 0.,-0.00000002,-0.00000242,-0.00000185,0.00000003,-0.00000244,-0.00000
 185,0.00000062,0.00000010,-0.00000013,0.00000070,-0.00000161,-0.000000
 96,0.00000043,-0.00000177,0.00000031,-0.00000040,-0.00000002,-0.000000
 02,-0.00000008,0.00000179,-0.00000029,0.00000066,0.00000173,0.00000088
 ,0.00000036,-0.00000284,0.00000021,-0.00000023,0.00000285,-0.00000022,
 0.00000018,-0.00000290,0.00000025,-0.00000046,0.00000287,-0.00000023,0
 .00000080,0.00000002,-0.00000003,-0.00000230,0.00000152,0.00000094,-0.
 00000137,0.00000053,0.00000224,-0.00000254,-0.00000034,0.00000035,-0.0
 0000184,-0.00000079,-0.00000200,-0.00000205,-0.00000193,-0.00000055,0.
 00000069,0.00000008,-0.00000008,-0.00000010,0.00000233,0.00000167,0.00
 000002,-0.00000233,-0.00000164,0.00000328,0.00000086,-0.00000056,-0.00
 000636,0.00000498,0.00000183,0.00000275,0.00000810,0.00001044,0.000004
 11,-0.00000112,-0.00000223,0.00000347,-0.00000015,-0.00000019,-0.00000
 553,-0.00000605,-0.00000053,0.00000197,-0.00000769,-0.00001091,0.00000
 424,0.00000190,0.00000132\\\@
 The archive entry for this job was punched.


 Spring appears, and we are once more children.
                                  -- Anonymous
 Job cpu time:       5 days  4 hours 38 minutes 56.1 seconds.
 Elapsed time:       0 days  3 hours 56 minutes 33.0 seconds.
 File lengths (MBytes):  RWF=   4105 Int=      0 D2E=      0 Chk=     61 Scr=      1
 Normal termination of Gaussian 16 at Wed Nov  1 05:23:40 2023.
