 Entering Gaussian System, Link 0=g16
 Input=ph4cf3_idp_2_1_m062x.com
 Output=ph4cf3_idp_2_1_m062x.log
 Initial command:
 /arc/software/Gaussian/g16.c01/l1.exe "/tmp/Gau-94603.inp" -scrdir="/tmp/"
 Entering Link 1 = /arc/software/Gaussian/g16.c01/l1.exe PID=     94604.
  
 Copyright (c) 1988-2019, Gaussian, Inc.  All Rights Reserved.
  
 This is part of the Gaussian(R) 16 program.  It is based on
 the Gaussian(R) 09 system (copyright 2009, Gaussian, Inc.),
 the Gaussian(R) 03 system (copyright 2003, Gaussian, Inc.),
 the Gaussian(R) 98 system (copyright 1998, Gaussian, Inc.),
 the Gaussian(R) 94 system (copyright 1995, Gaussian, Inc.),
 the Gaussian 92(TM) system (copyright 1992, Gaussian, Inc.),
 the Gaussian 90(TM) system (copyright 1990, Gaussian, Inc.),
 the Gaussian 88(TM) system (copyright 1988, Gaussian, Inc.),
 the Gaussian 86(TM) system (copyright 1986, Carnegie Mellon
 University), and the Gaussian 82(TM) system (copyright 1983,
 Carnegie Mellon University). Gaussian is a federally registered
 trademark of Gaussian, Inc.
  
 This software contains proprietary and confidential information,
 including trade secrets, belonging to Gaussian, Inc.
  
 This software is provided under written license and may be
 used, copied, transmitted, or stored only in accord with that
 written license.
  
 The following legend is applicable only to US Government
 contracts under FAR:
  
                    RESTRICTED RIGHTS LEGEND
  
 Use, reproduction and disclosure by the US Government is
 subject to restrictions as set forth in subparagraphs (a)
 and (c) of the Commercial Computer Software - Restricted
 Rights clause in FAR 52.227-19.
  
 Gaussian, Inc.
 340 Quinnipiac St., Bldg. 40, Wallingford CT 06492
  
  
 ---------------------------------------------------------------
 Warning -- This program may not be used in any manner that
 competes with the business of Gaussian, Inc. or will provide
 assistance to any competitor of Gaussian, Inc.  The licensee
 of this program is prohibited from giving any competitor of
 Gaussian, Inc. access to this program.  By using this program,
 the user acknowledges that Gaussian, Inc. is engaged in the
 business of creating and licensing software in the field of
 computational chemistry and represents and warrants to the
 licensee that it is not a competitor of Gaussian, Inc. and that
 it will not use this program in any manner prohibited above.
 ---------------------------------------------------------------
  

 Cite this work as:
 Gaussian 16, Revision C.01,
 M. J. Frisch, G. W. Trucks, H. B. Schlegel, G. E. Scuseria, 
 M. A. Robb, J. R. Cheeseman, G. Scalmani, V. Barone, 
 G. A. Petersson, H. Nakatsuji, X. Li, M. Caricato, A. V. Marenich, 
 J. Bloino, B. G. Janesko, R. Gomperts, B. Mennucci, H. P. Hratchian, 
 J. V. Ortiz, A. F. Izmaylov, J. L. Sonnenberg, D. Williams-Young, 
 F. Ding, F. Lipparini, F. Egidi, J. Goings, B. Peng, A. Petrone, 
 T. Henderson, D. Ranasinghe, V. G. Zakrzewski, J. Gao, N. Rega, 
 G. Zheng, W. Liang, M. Hada, M. Ehara, K. Toyota, R. Fukuda, 
 J. Hasegawa, M. Ishida, T. Nakajima, Y. Honda, O. Kitao, H. Nakai, 
 T. Vreven, K. Throssell, J. A. Montgomery, Jr., J. E. Peralta, 
 F. Ogliaro, M. J. Bearpark, J. J. Heyd, E. N. Brothers, K. N. Kudin, 
 V. N. Staroverov, T. A. Keith, R. Kobayashi, J. Normand, 
 K. Raghavachari, A. P. Rendell, J. C. Burant, S. S. Iyengar, 
 J. Tomasi, M. Cossi, J. M. Millam, M. Klene, C. Adamo, R. Cammi, 
 J. W. Ochterski, R. L. Martin, K. Morokuma, O. Farkas, 
 J. B. Foresman, and D. J. Fox, Gaussian, Inc., Wallingford CT, 2019.
 
 ******************************************
 Gaussian 16:  ES64L-G16RevC.01  3-Jul-2019
                31-Oct-2023 
 ******************************************
 %nprocshared=32
 Will use up to   32 processors via shared memory.
 %mem=8000MB
 %chk=ph4cf3_idp_2_1_m062x.chk
 -----------------------------------------
 # opt freq=noraman m062x def2tzvp pop=nbo
 -----------------------------------------
 1/18=20,19=15,26=3,38=1/1,3;
 2/9=110,12=2,17=6,18=5,40=1/2;
 3/5=44,7=101,11=2,25=1,30=1,71=1,74=-55/1,2,3;
 4//1;
 5/5=2,38=5/2;
 6/7=2,8=2,9=2,10=2,28=1,40=1/1,7;
 7//1,2,3,16;
 1/18=20,19=15,26=3/3(2);
 2/9=110/2;
 99//99;
 2/9=110/2;
 3/5=44,7=101,11=2,25=1,30=1,71=1,74=-55/1,2,3;
 4/5=5,16=3,69=1/1;
 5/5=2,38=5/2;
 7//1,2,3,16;
 1/18=20,19=15,26=3/3(-5);
 2/9=110/2;
 6/7=2,8=2,9=2,10=2,19=2,28=1,40=1/1,7;
 99/9=1/99;
 ------------
 Structure697
 ------------
 Symbolic Z-matrix:
 Charge =  0 Multiplicity = 1
 C                     1.5849    0.092     0.1518 
 C                     2.3937    1.1163    0.6598 
 C                     3.781     1.0364    0.5666 
 C                     4.3682   -0.0718   -0.0384 
 C                     3.579    -1.0991   -0.5493 
 C                     2.1921   -1.0156   -0.4529 
 H                     1.9452    1.9745    1.1392 
 H                     4.3981    1.8294    0.964 
 H                     5.4445   -0.1352   -0.112 
 H                     4.0397   -1.9555   -1.0204 
 H                     1.5857   -1.8117   -0.8603 
 C                    -2.6959    0.3441    0.4444 
 C                    -1.952     1.4448    0.0067 
 C                    -0.5651    1.3606   -0.0864 
 C                     0.1024    0.1793    0.2531 
 C                    -0.6464   -0.9188    0.689 
 C                    -2.0334   -0.8395    0.7855 
 H                    -2.4475    2.3664   -0.2659 
 H                    -0.0053    2.2163   -0.4355 
 H                    -0.1484   -1.837     0.9649 
 H                    -2.5919   -1.7002    1.1265 
 C                    -4.22      0.4347    0.5516 
 F                    -4.6864   -0.3588    1.5179 
 F                    -4.6154    1.6825    0.8113 
 F                    -4.7579    0.0527   -0.606 
 

 GradGradGradGradGradGradGradGradGradGradGradGradGradGradGradGradGradGrad
 Berny optimization.
 Initialization pass.
                           ----------------------------
                           !    Initial Parameters    !
                           ! (Angstroms and Degrees)  !
 --------------------------                            --------------------------
 ! Name  Definition              Value          Derivative Info.                !
 --------------------------------------------------------------------------------
 ! R1    R(1,2)                  1.4005         estimate D2E/DX2                !
 ! R2    R(1,6)                  1.4004         estimate D2E/DX2                !
 ! R3    R(1,15)                 1.4885         estimate D2E/DX2                !
 ! R4    R(2,3)                  1.3927         estimate D2E/DX2                !
 ! R5    R(2,7)                  1.0805         estimate D2E/DX2                !
 ! R6    R(3,4)                  1.3925         estimate D2E/DX2                !
 ! R7    R(3,8)                  1.0805         estimate D2E/DX2                !
 ! R8    R(4,5)                  1.3926         estimate D2E/DX2                !
 ! R9    R(4,9)                  1.0807         estimate D2E/DX2                !
 ! R10   R(5,6)                  1.3928         estimate D2E/DX2                !
 ! R11   R(5,10)                 1.0806         estimate D2E/DX2                !
 ! R12   R(6,11)                 1.0805         estimate D2E/DX2                !
 ! R13   R(12,13)                1.3988         estimate D2E/DX2                !
 ! R14   R(12,17)                1.3986         estimate D2E/DX2                !
 ! R15   R(12,22)                1.5305         estimate D2E/DX2                !
 ! R16   R(13,14)                1.3926         estimate D2E/DX2                !
 ! R17   R(13,18)                1.0813         estimate D2E/DX2                !
 ! R18   R(14,15)                1.3987         estimate D2E/DX2                !
 ! R19   R(14,19)                1.0805         estimate D2E/DX2                !
 ! R20   R(15,16)                1.3988         estimate D2E/DX2                !
 ! R21   R(16,17)                1.3926         estimate D2E/DX2                !
 ! R22   R(16,20)                1.0804         estimate D2E/DX2                !
 ! R23   R(17,21)                1.0812         estimate D2E/DX2                !
 ! R24   R(22,23)                1.3345         estimate D2E/DX2                !
 ! R25   R(22,24)                1.3345         estimate D2E/DX2                !
 ! R26   R(22,25)                1.3324         estimate D2E/DX2                !
 ! A1    A(2,1,6)              118.9918         estimate D2E/DX2                !
 ! A2    A(2,1,15)             120.5035         estimate D2E/DX2                !
 ! A3    A(6,1,15)             120.5046         estimate D2E/DX2                !
 ! A4    A(1,2,3)              120.599          estimate D2E/DX2                !
 ! A5    A(1,2,7)              120.1408         estimate D2E/DX2                !
 ! A6    A(3,2,7)              119.2569         estimate D2E/DX2                !
 ! A7    A(2,3,4)              119.6561         estimate D2E/DX2                !
 ! A8    A(2,3,8)              120.1431         estimate D2E/DX2                !
 ! A9    A(4,3,8)              120.2007         estimate D2E/DX2                !
 ! A10   A(3,4,5)              120.4993         estimate D2E/DX2                !
 ! A11   A(3,4,9)              119.7539         estimate D2E/DX2                !
 ! A12   A(5,4,9)              119.7469         estimate D2E/DX2                !
 ! A13   A(4,5,6)              119.6517         estimate D2E/DX2                !
 ! A14   A(4,5,10)             120.1987         estimate D2E/DX2                !
 ! A15   A(6,5,10)             120.1494         estimate D2E/DX2                !
 ! A16   A(1,6,5)              120.6021         estimate D2E/DX2                !
 ! A17   A(1,6,11)             120.1463         estimate D2E/DX2                !
 ! A18   A(5,6,11)             119.2483         estimate D2E/DX2                !
 ! A19   A(13,12,17)           119.3624         estimate D2E/DX2                !
 ! A20   A(13,12,22)           120.3264         estimate D2E/DX2                !
 ! A21   A(17,12,22)           120.3111         estimate D2E/DX2                !
 ! A22   A(12,13,14)           120.1991         estimate D2E/DX2                !
 ! A23   A(12,13,18)           120.3898         estimate D2E/DX2                !
 ! A24   A(14,13,18)           119.4106         estimate D2E/DX2                !
 ! A25   A(13,14,15)           120.6728         estimate D2E/DX2                !
 ! A26   A(13,14,19)           119.321          estimate D2E/DX2                !
 ! A27   A(15,14,19)           120.0027         estimate D2E/DX2                !
 ! A28   A(1,15,14)            120.5522         estimate D2E/DX2                !
 ! A29   A(1,15,16)            120.5528         estimate D2E/DX2                !
 ! A30   A(14,15,16)           118.895          estimate D2E/DX2                !
 ! A31   A(15,16,17)           120.6681         estimate D2E/DX2                !
 ! A32   A(15,16,20)           120.0019         estimate D2E/DX2                !
 ! A33   A(17,16,20)           119.3269         estimate D2E/DX2                !
 ! A34   A(12,17,16)           120.2025         estimate D2E/DX2                !
 ! A35   A(12,17,21)           120.3914         estimate D2E/DX2                !
 ! A36   A(16,17,21)           119.406          estimate D2E/DX2                !
 ! A37   A(12,22,23)           111.3176         estimate D2E/DX2                !
 ! A38   A(12,22,24)           111.348          estimate D2E/DX2                !
 ! A39   A(12,22,25)           108.9161         estimate D2E/DX2                !
 ! A40   A(23,22,24)           108.1507         estimate D2E/DX2                !
 ! A41   A(23,22,25)           108.5134         estimate D2E/DX2                !
 ! A42   A(24,22,25)           108.5143         estimate D2E/DX2                !
 ! D1    D(6,1,2,3)             -0.0271         estimate D2E/DX2                !
 ! D2    D(6,1,2,7)           -179.3662         estimate D2E/DX2                !
 ! D3    D(15,1,2,3)           179.9724         estimate D2E/DX2                !
 ! D4    D(15,1,2,7)             0.6333         estimate D2E/DX2                !
 ! D5    D(2,1,6,5)             -0.0289         estimate D2E/DX2                !
 ! D6    D(2,1,6,11)          -179.3628         estimate D2E/DX2                !
 ! D7    D(15,1,6,5)           179.9716         estimate D2E/DX2                !
 ! D8    D(15,1,6,11)            0.6377         estimate D2E/DX2                !
 ! D9    D(2,1,15,14)           46.3576         estimate D2E/DX2                !
 ! D10   D(2,1,15,16)         -133.6624         estimate D2E/DX2                !
 ! D11   D(6,1,15,14)         -133.6429         estimate D2E/DX2                !
 ! D12   D(6,1,15,16)           46.3371         estimate D2E/DX2                !
 ! D13   D(1,2,3,4)              0.0577         estimate D2E/DX2                !
 ! D14   D(1,2,3,8)           -179.795          estimate D2E/DX2                !
 ! D15   D(7,2,3,4)            179.4026         estimate D2E/DX2                !
 ! D16   D(7,2,3,8)             -0.4501         estimate D2E/DX2                !
 ! D17   D(2,3,4,5)             -0.0327         estimate D2E/DX2                !
 ! D18   D(2,3,4,9)            179.9703         estimate D2E/DX2                !
 ! D19   D(8,3,4,5)            179.8199         estimate D2E/DX2                !
 ! D20   D(8,3,4,9)             -0.177          estimate D2E/DX2                !
 ! D21   D(3,4,5,6)             -0.0226         estimate D2E/DX2                !
 ! D22   D(3,4,5,10)           179.8206         estimate D2E/DX2                !
 ! D23   D(9,4,5,6)            179.9744         estimate D2E/DX2                !
 ! D24   D(9,4,5,10)            -0.1824         estimate D2E/DX2                !
 ! D25   D(4,5,6,1)              0.0536         estimate D2E/DX2                !
 ! D26   D(4,5,6,11)           179.3934         estimate D2E/DX2                !
 ! D27   D(10,5,6,1)          -179.7896         estimate D2E/DX2                !
 ! D28   D(10,5,6,11)           -0.4498         estimate D2E/DX2                !
 ! D29   D(17,12,13,14)         -0.0599         estimate D2E/DX2                !
 ! D30   D(17,12,13,18)        179.6983         estimate D2E/DX2                !
 ! D31   D(22,12,13,14)        179.8265         estimate D2E/DX2                !
 ! D32   D(22,12,13,18)         -0.4153         estimate D2E/DX2                !
 ! D33   D(13,12,17,16)         -0.0181         estimate D2E/DX2                !
 ! D34   D(13,12,17,21)        179.954          estimate D2E/DX2                !
 ! D35   D(22,12,17,16)       -179.9046         estimate D2E/DX2                !
 ! D36   D(22,12,17,21)          0.0676         estimate D2E/DX2                !
 ! D37   D(13,12,22,23)       -150.06           estimate D2E/DX2                !
 ! D38   D(13,12,22,24)        -29.2924         estimate D2E/DX2                !
 ! D39   D(13,12,22,25)         90.3337         estimate D2E/DX2                !
 ! D40   D(17,12,22,23)         29.8254         estimate D2E/DX2                !
 ! D41   D(17,12,22,24)        150.593          estimate D2E/DX2                !
 ! D42   D(17,12,22,25)        -89.7809         estimate D2E/DX2                !
 ! D43   D(12,13,14,15)          0.0779         estimate D2E/DX2                !
 ! D44   D(12,13,14,19)        179.4001         estimate D2E/DX2                !
 ! D45   D(18,13,14,15)       -179.6826         estimate D2E/DX2                !
 ! D46   D(18,13,14,19)         -0.3605         estimate D2E/DX2                !
 ! D47   D(13,14,15,1)         179.9632         estimate D2E/DX2                !
 ! D48   D(13,14,15,16)         -0.0172         estimate D2E/DX2                !
 ! D49   D(19,14,15,1)           0.6457         estimate D2E/DX2                !
 ! D50   D(19,14,15,16)       -179.3347         estimate D2E/DX2                !
 ! D51   D(1,15,16,17)         179.9582         estimate D2E/DX2                !
 ! D52   D(1,15,16,20)           0.6085         estimate D2E/DX2                !
 ! D53   D(14,15,16,17)         -0.0614         estimate D2E/DX2                !
 ! D54   D(14,15,16,20)       -179.4111         estimate D2E/DX2                !
 ! D55   D(15,16,17,12)          0.0793         estimate D2E/DX2                !
 ! D56   D(15,16,17,21)       -179.8931         estimate D2E/DX2                !
 ! D57   D(20,16,17,12)        179.4334         estimate D2E/DX2                !
 ! D58   D(20,16,17,21)         -0.539          estimate D2E/DX2                !
 --------------------------------------------------------------------------------
 Trust Radius=3.00D-01 FncErr=1.00D-07 GrdErr=1.00D-06 EigMax=2.50D+02 EigMin=1.00D-04
 Number of steps in this run=    136 maximum allowed number of steps=    150.
 GradGradGradGradGradGradGradGradGradGradGradGradGradGradGradGradGradGrad

                          Input orientation:                          
 ---------------------------------------------------------------------
 Center     Atomic      Atomic             Coordinates (Angstroms)
 Number     Number       Type             X           Y           Z
 ---------------------------------------------------------------------
      1          6           0        1.584900    0.092000    0.151800
      2          6           0        2.393700    1.116300    0.659800
      3          6           0        3.781000    1.036400    0.566600
      4          6           0        4.368200   -0.071800   -0.038400
      5          6           0        3.579000   -1.099100   -0.549300
      6          6           0        2.192100   -1.015600   -0.452900
      7          1           0        1.945200    1.974500    1.139200
      8          1           0        4.398100    1.829400    0.964000
      9          1           0        5.444500   -0.135200   -0.112000
     10          1           0        4.039700   -1.955500   -1.020400
     11          1           0        1.585700   -1.811700   -0.860300
     12          6           0       -2.695900    0.344100    0.444400
     13          6           0       -1.952000    1.444800    0.006700
     14          6           0       -0.565100    1.360600   -0.086400
     15          6           0        0.102400    0.179300    0.253100
     16          6           0       -0.646400   -0.918800    0.689000
     17          6           0       -2.033400   -0.839500    0.785500
     18          1           0       -2.447500    2.366400   -0.265900
     19          1           0       -0.005300    2.216300   -0.435500
     20          1           0       -0.148400   -1.837000    0.964900
     21          1           0       -2.591900   -1.700200    1.126500
     22          6           0       -4.220000    0.434700    0.551600
     23          9           0       -4.686400   -0.358800    1.517900
     24          9           0       -4.615400    1.682500    0.811300
     25          9           0       -4.757900    0.052700   -0.606000
 ---------------------------------------------------------------------
                    Distance matrix (angstroms):
                    1          2          3          4          5
     1  C    0.000000
     2  C    1.400504   0.000000
     3  C    2.426274   1.392721   0.000000
     4  C    2.794596   2.407844   1.392457   0.000000
     5  C    2.426251   2.788343   2.417932   1.392552   0.000000
     6  C    1.400404   2.413243   2.788313   2.407899   1.392752
     7  H    2.156057   1.080502   2.139641   3.383048   3.868766
     8  H    3.404750   2.149109   1.080550   2.149479   3.396633
     9  H    3.875271   3.386637   2.144849   1.080675   2.144860
    10  H    3.404754   3.868894   3.396610   2.149549   1.080556
    11  H    2.156020   3.396579   3.868728   3.383057   2.139571
    12  C    4.298188   5.152351   6.514940   7.092783   6.514955
    13  C    3.789562   4.406763   5.774735   6.499772   6.113307
    14  C    2.507705   3.061208   4.406824   5.137268   4.841277
    15  C    1.488519   2.508671   3.790119   4.283115   3.790106
    16  C    2.507788   3.658510   4.841452   5.137386   4.406802
    17  C    3.789639   4.841505   6.113441   6.499897   5.774783
    18  H    4.648400   5.084967   6.423096   7.242261   6.957637
    19  H    2.717776   2.857426   4.090530   4.951827   4.883854
    20  H    2.717812   3.908624   4.884184   4.951991   4.090331
    21  H    4.648406   5.745145   6.958184   7.242353   6.422588
    22  C    5.828735   6.649610   8.023607   8.623330   8.024271
    23  F    6.434179   7.282862   8.634143   9.191856   8.552087
    24  F    6.434932   7.033564   8.424776   9.192640   8.759950
    25  F    6.388029   7.340223   8.674991   9.144582   8.416279
                    6          7          8          9         10
     6  C    0.000000
     7  H    3.396534   0.000000
     8  H    3.868859   2.463426   0.000000
     9  H    3.386654   4.273340   2.472323   0.000000
    10  H    2.149208   4.949313   4.288562   2.472275   0.000000
    11  H    1.080496   4.296807   4.949270   4.273282   2.463418
    12  C    5.152327   4.967973   7.266425   8.173458   7.266506
    13  C    4.841319   4.092836   6.433359   7.564304   6.965446
    14  C    3.658251   2.860170   5.094749   6.193009   5.750918
    15  C    2.508599   2.720998   4.656313   5.363790   4.656340
    16  C    3.061109   3.910276   5.751105   6.193117   5.094735
    17  C    4.406756   4.885996   6.965564   7.564426   6.433450
    18  H    5.744457   4.628575   6.975906   8.280420   7.831466
    19  H    3.908203   2.518451   4.636618   5.944285   5.840210
    20  H    2.857061   4.352134   5.840647   5.944440   4.636339
    21  H    5.084274   5.838566   7.832278   8.280509   6.975133
    22  C    6.650370   6.381689   8.739960   9.704005   8.741103
    23  F    7.185346   7.040300   9.360725  10.263611   9.226984
    24  F    7.431016   6.575276   9.015990  10.264410   9.565612
    25  F    7.033293   7.188226   9.458007  10.216081   9.033402
                   11         12         13         14         15
    11  H    0.000000
    12  C    4.968080   0.000000
    13  C    4.885878   1.398753   0.000000
    14  C    3.910032   2.419779   1.392569   0.000000
    15  C    2.721014   2.809669   2.425441   1.398673   0.000000
    16  C    2.860047   2.419751   2.785091   2.409049   1.398762
    17  C    4.092886   1.398629   2.414784   2.785059   2.425499
    18  H    5.837511   2.157759   1.081285   2.141794   3.399229
    19  H    4.351611   3.393919   2.140186   1.080495   2.152937
    20  H    2.517757   3.393799   3.865402   3.391683   2.152911
    21  H    4.627326   2.157600   3.399184   3.866205   3.399206
    22  C    6.383254   1.530549   2.541858   3.823955   4.340216
    23  F    6.863381   2.368240   3.607443   4.745021   4.982156
    24  F    7.311451   2.368630   2.792415   4.161059   4.982854
    25  F    6.616791   2.332402   3.191617   4.422687   4.937266
                   16         17         18         19         20
    16  C    0.000000
    17  C    1.392613   0.000000
    18  H    3.866308   3.399223   0.000000
    19  H    3.391808   3.865481   2.452679   0.000000
    20  H    1.080378   2.140191   4.946645   4.290785   0.000000
    21  H    2.141720   1.081207   4.300798   4.946647   2.452656
    22  C    3.823802   2.541557   2.746184   4.681043   4.680744
    23  F    4.162004   2.793903   3.952383   5.688551   4.804615
    24  F    4.747071   3.609415   2.515526   4.805463   5.688986
    25  F    4.418741   3.186721   3.287373   5.224695   5.223618
                   21         22         23         24         25
    21  H    0.000000
    22  C    2.745727   0.000000
    23  F    2.517832   1.334506   0.000000
    24  F    3.954309   1.334462   2.161303   0.000000
    25  F    3.281123   1.332403   2.164577   2.164554   0.000000
 Stoichiometry    C13H9F3
 Framework group  C1[X(C13H9F3)]
 Deg. of freedom    69
 Full point group                 C1      NOp   1
 Largest Abelian subgroup         C1      NOp   1
 Largest concise Abelian subgroup C1      NOp   1
                         Standard orientation:                         
 ---------------------------------------------------------------------
 Center     Atomic      Atomic             Coordinates (Angstroms)
 Number     Number       Type             X           Y           Z
 ---------------------------------------------------------------------
      1          6           0       -2.286887    0.000498   -0.001164
      2          6           0       -2.997869    1.110091   -0.475210
      3          6           0       -4.390588    1.111900   -0.476592
      4          6           0       -5.081483    0.000401   -0.001019
      5          6           0       -4.390395   -1.111150    0.474431
      6          6           0       -2.997645   -1.109107    0.472894
      7          1           0       -2.468302    1.972075   -0.854717
      8          1           0       -4.931716    1.970670   -0.847111
      9          1           0       -6.162158    0.000301   -0.000919
     10          1           0       -4.931443   -1.969931    0.845055
     11          1           0       -2.468036   -1.971043    0.852435
     12          6           0        2.011301    0.000822   -0.001439
     13          6           0        1.305119    1.110031    0.475501
     14          6           0       -0.087447    1.107544    0.473699
     15          6           0       -0.798368    0.000602   -0.001229
     16          6           0       -0.087276   -1.106470   -0.475859
     17          6           0        1.305333   -1.108605   -0.477827
     18          1           0        1.834070    1.974639    0.852119
     19          1           0       -0.618599    1.968004    0.854429
     20          1           0       -0.618294   -1.967283   -0.855645
     21          1           0        1.834347   -1.974576   -0.850984
     22          6           0        3.541846    0.002009   -0.004478
     23          9           0        4.025592   -0.743441   -1.000069
     24          9           0        4.026411    1.238256   -0.137452
     25          9           0        3.976473   -0.500844    1.150310
 ---------------------------------------------------------------------
 Rotational constants (GHZ):           1.9006782           0.2114553           0.2011987
 Standard basis: def2TZVP (5D, 7F)
 There are   630 symmetry adapted cartesian basis functions of A   symmetry.
 There are   550 symmetry adapted basis functions of A   symmetry.
   550 basis functions,   888 primitive gaussians,   630 cartesian basis functions
    57 alpha electrons       57 beta electrons
       nuclear repulsion energy      1010.9862344492 Hartrees.
 NAtoms=   25 NActive=   25 NUniq=   25 SFac= 1.00D+00 NAtFMM=   60 NAOKFM=F Big=F
 Integral buffers will be    131072 words long.
 Raffenetti 2 integral format.
 Two-electron integral symmetry is turned on.
 One-electron integrals computed using PRISM.
   1 Symmetry operations used in ECPInt.
 ECPInt:  NShTT=   22578 NPrTT=   70504 LenC2=   19796 LenP2D=   45304.
 LDataN:  DoStor=T MaxTD1= 6 Len=  172
 NBasis=   550 RedAO= T EigKep=  7.19D-06  NBF=   550
 NBsUse=   550 1.00D-06 EigRej= -1.00D+00 NBFU=   550
 ExpMin= 9.52D-02 ExpMax= 3.55D+04 ExpMxC= 1.21D+03 IAcc=3 IRadAn=         5 AccDes= 0.00D+00
 Harris functional with IExCor= 1009 and IRadAn=       5 diagonalized for initial guess.
 HarFok:  IExCor= 1009 AccDes= 0.00D+00 IRadAn=         5 IDoV= 1 UseB2=F ITyADJ=14
 ICtDFT=  3500011 ScaDFX=  1.000000  1.000000  1.000000  1.000000
 FoFCou: FMM=F IPFlag=           0 FMFlag=      100000 FMFlg1=           0
         NFxFlg=           0 DoJE=T BraDBF=F KetDBF=T FulRan=T
         wScrn=  0.000000 ICntrl=       500 IOpCl=  0 I1Cent=   200000004 NGrid=           0
         NMat0=    1 NMatS0=      1 NMatT0=    0 NMatD0=    1 NMtDS0=    0 NMtDT0=    0
 Petite list used in FoFCou.
 Requested convergence on RMS density matrix=1.00D-08 within 128 cycles.
 Requested convergence on MAX density matrix=1.00D-06.
 Requested convergence on             energy=1.00D-06.
 No special actions if energy rises.
 Integral accuracy reduced to 1.0D-05 until final iterations.
 Problem detected with inexpensive integrals.
 Switching to full accuracy and repeating last cycle.
 SCF Done:  E(RM062X) =  -800.359166968     A.U. after   18 cycles
            NFock= 18  Conv=0.37D-08     -V/T= 2.0046

 **********************************************************************

            Population analysis using the SCF Density.

 **********************************************************************

 Orbital symmetries:
       Occupied  (A) (A) (A) (A) (A) (A) (A) (A) (A) (A) (A) (A)
                 (A) (A) (A) (A) (A) (A) (A) (A) (A) (A) (A) (A)
                 (A) (A) (A) (A) (A) (A) (A) (A) (A) (A) (A) (A)
                 (A) (A) (A) (A) (A) (A) (A) (A) (A) (A) (A) (A)
                 (A) (A) (A) (A) (A) (A) (A) (A) (A)
       Virtual   (A) (A) (A) (A) (A) (A) (A) (A) (A) (A) (A) (A)
                 (A) (A) (A) (A) (A) (A) (A) (A) (A) (A) (A) (A)
                 (A) (A) (A) (A) (A) (A) (A) (A) (A) (A) (A) (A)
                 (A) (A) (A) (A) (A) (A) (A) (A) (A) (A) (A) (A)
                 (A) (A) (A) (A) (A) (A) (A) (A) (A) (A) (A) (A)
                 (A) (A) (A) (A) (A) (A) (A) (A) (A) (A) (A) (A)
                 (A) (A) (A) (A) (A) (A) (A) (A) (A) (A) (A) (A)
                 (A) (A) (A) (A) (A) (A) (A) (A) (A) (A) (A) (A)
                 (A) (A) (A) (A) (A) (A) (A) (A) (A) (A) (A) (A)
                 (A) (A) (A) (A) (A) (A) (A) (A) (A) (A) (A) (A)
                 (A) (A) (A) (A) (A) (A) (A) (A) (A) (A) (A) (A)
                 (A) (A) (A) (A) (A) (A) (A) (A) (A) (A) (A) (A)
                 (A) (A) (A) (A) (A) (A) (A) (A) (A) (A) (A) (A)
                 (A) (A) (A) (A) (A) (A) (A) (A) (A) (A) (A) (A)
                 (A) (A) (A) (A) (A) (A) (A) (A) (A) (A) (A) (A)
                 (A) (A) (A) (A) (A) (A) (A) (A) (A) (A) (A) (A)
                 (A) (A) (A) (A) (A) (A) (A) (A) (A) (A) (A) (A)
                 (A) (A) (A) (A) (A) (A) (A) (A) (A) (A) (A) (A)
                 (A) (A) (A) (A) (A) (A) (A) (A) (A) (A) (A) (A)
                 (A) (A) (A) (A) (A) (A) (A) (A) (A) (A) (A) (A)
                 (A) (A) (A) (A) (A) (A) (A) (A) (A) (A) (A) (A)
                 (A) (A) (A) (A) (A) (A) (A) (A) (A) (A) (A) (A)
                 (A) (A) (A) (A) (A) (A) (A) (A) (A) (A) (A) (A)
                 (A) (A) (A) (A) (A) (A) (A) (A) (A) (A) (A) (A)
                 (A) (A) (A) (A) (A) (A) (A) (A) (A) (A) (A) (A)
                 (A) (A) (A) (A) (A) (A) (A) (A) (A) (A) (A) (A)
                 (A) (A) (A) (A) (A) (A) (A) (A) (A) (A) (A) (A)
                 (A) (A) (A) (A) (A) (A) (A) (A) (A) (A) (A) (A)
                 (A) (A) (A) (A) (A) (A) (A) (A) (A) (A) (A) (A)
                 (A) (A) (A) (A) (A) (A) (A) (A) (A) (A) (A) (A)
                 (A) (A) (A) (A) (A) (A) (A) (A) (A) (A) (A) (A)
                 (A) (A) (A) (A) (A) (A) (A) (A) (A) (A) (A) (A)
                 (A) (A) (A) (A) (A) (A) (A) (A) (A) (A) (A) (A)
                 (A) (A) (A) (A) (A) (A) (A) (A) (A) (A) (A) (A)
                 (A) (A) (A) (A) (A) (A) (A) (A) (A) (A) (A) (A)
                 (A) (A) (A) (A) (A) (A) (A) (A) (A) (A) (A) (A)
                 (A) (A) (A) (A) (A) (A) (A) (A) (A) (A) (A) (A)
                 (A) (A) (A) (A) (A) (A) (A) (A) (A) (A) (A) (A)
                 (A) (A) (A) (A) (A) (A) (A) (A) (A) (A) (A) (A)
                 (A) (A) (A) (A) (A) (A) (A) (A) (A) (A) (A) (A)
                 (A) (A) (A) (A) (A) (A) (A) (A) (A) (A) (A) (A)
                 (A)
 The electronic state is 1-A.
 Alpha  occ. eigenvalues --  -25.28141 -25.28134 -25.27801 -10.79764 -10.57531
 Alpha  occ. eigenvalues --  -10.57061 -10.56468 -10.56463 -10.56425 -10.55917
 Alpha  occ. eigenvalues --  -10.55913 -10.55272 -10.55268 -10.55154 -10.55135
 Alpha  occ. eigenvalues --  -10.54988  -1.46987  -1.37852  -1.37722  -0.99233
 Alpha  occ. eigenvalues --   -0.96784  -0.90381  -0.86402  -0.85246  -0.85027
 Alpha  occ. eigenvalues --   -0.80262  -0.73386  -0.72350  -0.69858  -0.69583
 Alpha  occ. eigenvalues --   -0.68349  -0.68257  -0.65866  -0.61421  -0.57910
 Alpha  occ. eigenvalues --   -0.57733  -0.56465  -0.55152  -0.54262  -0.53805
 Alpha  occ. eigenvalues --   -0.53277  -0.52471  -0.51869  -0.51689  -0.50422
 Alpha  occ. eigenvalues --   -0.49732  -0.48233  -0.46135  -0.44420  -0.43626
 Alpha  occ. eigenvalues --   -0.42644  -0.41001  -0.40514  -0.34536  -0.32680
 Alpha  occ. eigenvalues --   -0.31864  -0.29628
 Alpha virt. eigenvalues --   -0.01944   0.00249   0.01033   0.03248   0.07779
 Alpha virt. eigenvalues --    0.08424   0.09179   0.11070   0.11087   0.12833
 Alpha virt. eigenvalues --    0.12950   0.13658   0.14191   0.15478   0.16689
 Alpha virt. eigenvalues --    0.16871   0.17777   0.18108   0.19365   0.20203
 Alpha virt. eigenvalues --    0.21542   0.22071   0.22212   0.22733   0.23738
 Alpha virt. eigenvalues --    0.24466   0.24904   0.25759   0.26657   0.26689
 Alpha virt. eigenvalues --    0.27425   0.28319   0.28658   0.28782   0.29467
 Alpha virt. eigenvalues --    0.30151   0.30281   0.31095   0.31928   0.32433
 Alpha virt. eigenvalues --    0.32837   0.34198   0.35105   0.36242   0.36794
 Alpha virt. eigenvalues --    0.37030   0.37221   0.37295   0.38714   0.39309
 Alpha virt. eigenvalues --    0.40007   0.40491   0.40742   0.41448   0.42475
 Alpha virt. eigenvalues --    0.43035   0.43440   0.44124   0.44278   0.45001
 Alpha virt. eigenvalues --    0.45533   0.46842   0.47534   0.47764   0.49291
 Alpha virt. eigenvalues --    0.49579   0.50468   0.51050   0.51923   0.53399
 Alpha virt. eigenvalues --    0.53625   0.54223   0.55028   0.55348   0.56927
 Alpha virt. eigenvalues --    0.58189   0.59005   0.59616   0.61117   0.62509
 Alpha virt. eigenvalues --    0.63488   0.65115   0.66649   0.67758   0.68255
 Alpha virt. eigenvalues --    0.69102   0.70585   0.71528   0.71926   0.72469
 Alpha virt. eigenvalues --    0.73110   0.73982   0.74186   0.74712   0.75249
 Alpha virt. eigenvalues --    0.75691   0.76442   0.76819   0.78133   0.79435
 Alpha virt. eigenvalues --    0.79912   0.80670   0.81776   0.82394   0.83177
 Alpha virt. eigenvalues --    0.83685   0.84309   0.86074   0.86719   0.87783
 Alpha virt. eigenvalues --    0.88264   0.89824   0.91092   0.91520   0.92305
 Alpha virt. eigenvalues --    0.93004   0.93242   0.95175   0.95787   0.96928
 Alpha virt. eigenvalues --    0.97447   1.01021   1.01502   1.02783   1.02947
 Alpha virt. eigenvalues --    1.03552   1.03800   1.05152   1.05626   1.07308
 Alpha virt. eigenvalues --    1.09305   1.11205   1.12603   1.13247   1.14954
 Alpha virt. eigenvalues --    1.16049   1.17186   1.20084   1.20479   1.21868
 Alpha virt. eigenvalues --    1.22086   1.22463   1.24207   1.25118   1.26018
 Alpha virt. eigenvalues --    1.27236   1.28543   1.29423   1.30611   1.31145
 Alpha virt. eigenvalues --    1.32166   1.33504   1.34065   1.35324   1.36690
 Alpha virt. eigenvalues --    1.38125   1.38802   1.40795   1.42351   1.44573
 Alpha virt. eigenvalues --    1.46255   1.47286   1.48014   1.48456   1.48815
 Alpha virt. eigenvalues --    1.52106   1.52696   1.54408   1.54883   1.55782
 Alpha virt. eigenvalues --    1.57028   1.57750   1.59549   1.59681   1.60808
 Alpha virt. eigenvalues --    1.61742   1.62507   1.64610   1.66334   1.68034
 Alpha virt. eigenvalues --    1.68260   1.70376   1.70764   1.71897   1.72375
 Alpha virt. eigenvalues --    1.74651   1.75013   1.76062   1.76695   1.77197
 Alpha virt. eigenvalues --    1.77692   1.79936   1.82137   1.87559   1.88183
 Alpha virt. eigenvalues --    1.88817   1.89105   1.89867   1.90859   1.92566
 Alpha virt. eigenvalues --    1.94297   1.95424   1.95484   1.99445   2.00489
 Alpha virt. eigenvalues --    2.01132   2.03463   2.04762   2.05996   2.06335
 Alpha virt. eigenvalues --    2.08282   2.08650   2.09635   2.10130   2.13450
 Alpha virt. eigenvalues --    2.16061   2.16732   2.17089   2.18694   2.18884
 Alpha virt. eigenvalues --    2.21474   2.21908   2.23904   2.25858   2.26085
 Alpha virt. eigenvalues --    2.26548   2.28674   2.29209   2.32843   2.34302
 Alpha virt. eigenvalues --    2.35392   2.36680   2.38428   2.40326   2.41686
 Alpha virt. eigenvalues --    2.42670   2.43817   2.46020   2.47192   2.47463
 Alpha virt. eigenvalues --    2.50328   2.51962   2.52101   2.53885   2.55164
 Alpha virt. eigenvalues --    2.56436   2.57067   2.59325   2.60186   2.60802
 Alpha virt. eigenvalues --    2.61072   2.61643   2.64277   2.65460   2.65478
 Alpha virt. eigenvalues --    2.66647   2.67374   2.67898   2.68922   2.69584
 Alpha virt. eigenvalues --    2.69799   2.70686   2.71207   2.73173   2.73989
 Alpha virt. eigenvalues --    2.74301   2.74739   2.75555   2.76890   2.77502
 Alpha virt. eigenvalues --    2.78777   2.80468   2.81841   2.82134   2.82460
 Alpha virt. eigenvalues --    2.83486   2.84451   2.85005   2.85861   2.86376
 Alpha virt. eigenvalues --    2.87379   2.89123   2.89829   2.90456   2.91224
 Alpha virt. eigenvalues --    2.92497   2.93810   2.96791   2.97600   3.00047
 Alpha virt. eigenvalues --    3.00801   3.01304   3.02454   3.04023   3.04826
 Alpha virt. eigenvalues --    3.05891   3.06253   3.07141   3.08500   3.08704
 Alpha virt. eigenvalues --    3.10006   3.11831   3.13418   3.13852   3.14022
 Alpha virt. eigenvalues --    3.14139   3.15413   3.17593   3.18358   3.18508
 Alpha virt. eigenvalues --    3.18966   3.19761   3.20672   3.21626   3.23119
 Alpha virt. eigenvalues --    3.24208   3.24658   3.25530   3.27155   3.27601
 Alpha virt. eigenvalues --    3.28941   3.29300   3.29880   3.30910   3.31889
 Alpha virt. eigenvalues --    3.32720   3.33110   3.34763   3.35595   3.36455
 Alpha virt. eigenvalues --    3.37164   3.37877   3.38329   3.39424   3.41175
 Alpha virt. eigenvalues --    3.42071   3.42416   3.43071   3.43725   3.44640
 Alpha virt. eigenvalues --    3.45266   3.45939   3.47695   3.48172   3.49098
 Alpha virt. eigenvalues --    3.51374   3.51784   3.52920   3.53544   3.54471
 Alpha virt. eigenvalues --    3.56136   3.57757   3.59029   3.59828   3.62010
 Alpha virt. eigenvalues --    3.62826   3.65671   3.67504   3.69058   3.73493
 Alpha virt. eigenvalues --    3.74367   3.75143   3.76061   3.78666   3.79506
 Alpha virt. eigenvalues --    3.81301   3.83392   3.84704   3.86770   3.89040
 Alpha virt. eigenvalues --    3.91539   3.93097   3.94122   3.94657   3.96063
 Alpha virt. eigenvalues --    3.96650   3.99540   3.99861   4.00642   4.00933
 Alpha virt. eigenvalues --    4.01599   4.03561   4.04565   4.07879   4.09021
 Alpha virt. eigenvalues --    4.09527   4.10196   4.11779   4.14926   4.15762
 Alpha virt. eigenvalues --    4.16958   4.17621   4.18021   4.18216   4.18640
 Alpha virt. eigenvalues --    4.19734   4.20118   4.20944   4.22506   4.23244
 Alpha virt. eigenvalues --    4.28482   4.30099   4.31271   4.32815   4.37730
 Alpha virt. eigenvalues --    4.38052   4.39533   4.45003   4.49469   4.55048
 Alpha virt. eigenvalues --    4.55724   4.60244   4.60578   4.61257   4.62045
 Alpha virt. eigenvalues --    4.64572   4.68980   4.70396   4.82445   4.83644
 Alpha virt. eigenvalues --    4.86173   4.87608   4.88930   4.92890   4.93184
 Alpha virt. eigenvalues --    4.95291   5.07732   5.12204   5.16437   5.19863
 Alpha virt. eigenvalues --    5.20822   5.27834   5.30524   5.33215   5.34623
 Alpha virt. eigenvalues --    5.38859   5.47082   5.48461   5.56183   5.58189
 Alpha virt. eigenvalues --    5.69009   6.83095   6.87994   6.88163   6.88474
 Alpha virt. eigenvalues --    6.88591   6.89235   6.89508   6.89629   6.90937
 Alpha virt. eigenvalues --    6.99352   7.02092   7.02354   7.07614   7.08327
 Alpha virt. eigenvalues --    7.15333   7.36631   7.39403   7.40288   7.55911
 Alpha virt. eigenvalues --    7.60103   7.60309   8.30003   8.32082   8.33282
 Alpha virt. eigenvalues --    8.46650   8.47152   8.55910   8.70943   8.77778
 Alpha virt. eigenvalues --    8.78617   8.86796   8.92983   8.98209   8.99367
 Alpha virt. eigenvalues --    9.08437   9.10739  22.02886  22.35016  22.66419
 Alpha virt. eigenvalues --   22.70130  22.77102  22.77280  22.79647  22.90478
 Alpha virt. eigenvalues --   22.90923  22.97575  23.03799  23.28211  23.45761
 Alpha virt. eigenvalues --   57.37803  57.38791  57.47966
          Condensed to atoms (all electrons):
               1          2          3          4          5          6
     1  C    4.971485   0.501318  -0.060242  -0.038248  -0.060041   0.505652
     2  C    0.501318   5.017918   0.508135  -0.045754  -0.042166  -0.035785
     3  C   -0.060242   0.508135   4.896699   0.524164  -0.043021  -0.042073
     4  C   -0.038248  -0.045754   0.524164   4.875839   0.524157  -0.045604
     5  C   -0.060041  -0.042166  -0.043021   0.524157   4.897155   0.507374
     6  C    0.505652  -0.035785  -0.042073  -0.045604   0.507374   5.016235
     7  H   -0.037015   0.398442  -0.023296   0.002975  -0.000424   0.005739
     8  H    0.004251  -0.030386   0.407817  -0.030574   0.003390   0.000189
     9  H    0.001254   0.003549  -0.032706   0.408469  -0.032732   0.003582
    10  H    0.004241   0.000200   0.003390  -0.030590   0.407782  -0.030366
    11  H   -0.036673   0.005793  -0.000425   0.002947  -0.023225   0.398042
    12  C   -0.002341   0.000315  -0.000004   0.000004  -0.000011   0.000149
    13  C    0.004864   0.002363  -0.000045  -0.000019   0.000077  -0.001273
    14  C   -0.080870   0.003574   0.001467   0.000230  -0.001121   0.007632
    15  C    0.298311  -0.085902   0.008188  -0.003673   0.008456  -0.087763
    16  C   -0.085347   0.008390  -0.001015   0.000229   0.001486   0.004239
    17  C    0.007430  -0.001586   0.000035  -0.000019  -0.000022   0.002130
    18  H    0.000171  -0.000006  -0.000002  -0.000000   0.000000   0.000030
    19  H    0.000965   0.001781   0.000294  -0.000019  -0.000159   0.000845
    20  H    0.000665   0.000916  -0.000149  -0.000019   0.000312   0.001738
    21  H    0.000173   0.000034  -0.000000  -0.000000  -0.000001  -0.000000
    22  C   -0.000178   0.000005   0.000000   0.000000  -0.000000   0.000010
    23  F    0.000003  -0.000000  -0.000000   0.000000  -0.000000  -0.000000
    24  F   -0.000001   0.000000   0.000000   0.000000  -0.000000   0.000000
    25  F   -0.000008   0.000000  -0.000000   0.000000   0.000000  -0.000000
               7          8          9         10         11         12
     1  C   -0.037015   0.004251   0.001254   0.004241  -0.036673  -0.002341
     2  C    0.398442  -0.030386   0.003549   0.000200   0.005793   0.000315
     3  C   -0.023296   0.407817  -0.032706   0.003390  -0.000425  -0.000004
     4  C    0.002975  -0.030574   0.408469  -0.030590   0.002947   0.000004
     5  C   -0.000424   0.003390  -0.032732   0.407782  -0.023225  -0.000011
     6  C    0.005739   0.000189   0.003582  -0.030366   0.398042   0.000149
     7  H    0.483096  -0.003220  -0.000266   0.000063  -0.000235   0.000013
     8  H   -0.003220   0.505450  -0.003794  -0.000262   0.000063   0.000000
     9  H   -0.000266  -0.003794   0.511651  -0.003788  -0.000267  -0.000000
    10  H    0.000063  -0.000262  -0.003788   0.505490  -0.003217   0.000000
    11  H   -0.000235   0.000063  -0.000267  -0.003217   0.483074   0.000003
    12  C    0.000013   0.000000  -0.000000   0.000000   0.000003   5.131836
    13  C    0.000322  -0.000002   0.000000  -0.000001  -0.000169   0.440499
    14  C    0.001204   0.000019  -0.000006   0.000035   0.001185  -0.038362
    15  C    0.002928  -0.000126   0.000092  -0.000138   0.002877  -0.044809
    16  C    0.001347   0.000033  -0.000006   0.000020   0.001261  -0.034027
    17  C   -0.000238  -0.000000   0.000000  -0.000002   0.000306   0.438905
    18  H    0.000038   0.000000  -0.000000   0.000000   0.000002  -0.028078
    19  H   -0.001529   0.000043   0.000000   0.000002   0.000072   0.003164
    20  H    0.000077   0.000002   0.000000   0.000043  -0.001506   0.003075
    21  H    0.000002   0.000000  -0.000000   0.000000   0.000042  -0.028249
    22  C    0.000001  -0.000000  -0.000000   0.000000   0.000001   0.456411
    23  F    0.000000  -0.000000   0.000000  -0.000000  -0.000000  -0.082740
    24  F    0.000000  -0.000000   0.000000  -0.000000   0.000000  -0.083235
    25  F   -0.000000  -0.000000  -0.000000  -0.000000   0.000000  -0.089230
              13         14         15         16         17         18
     1  C    0.004864  -0.080870   0.298311  -0.085347   0.007430   0.000171
     2  C    0.002363   0.003574  -0.085902   0.008390  -0.001586  -0.000006
     3  C   -0.000045   0.001467   0.008188  -0.001015   0.000035  -0.000002
     4  C   -0.000019   0.000230  -0.003673   0.000229  -0.000019  -0.000000
     5  C    0.000077  -0.001121   0.008456   0.001486  -0.000022   0.000000
     6  C   -0.001273   0.007632  -0.087763   0.004239   0.002130   0.000030
     7  H    0.000322   0.001204   0.002928   0.001347  -0.000238   0.000038
     8  H   -0.000002   0.000019  -0.000126   0.000033  -0.000000   0.000000
     9  H    0.000000  -0.000006   0.000092  -0.000006   0.000000  -0.000000
    10  H   -0.000001   0.000035  -0.000138   0.000020  -0.000002   0.000000
    11  H   -0.000169   0.001185   0.002877   0.001261   0.000306   0.000002
    12  C    0.440499  -0.038362  -0.044809  -0.034027   0.438905  -0.028078
    13  C    5.024785   0.467217  -0.043693  -0.033196  -0.058939   0.403283
    14  C    0.467217   5.041505   0.497014  -0.050009  -0.030076  -0.028974
    15  C   -0.043693   0.497014   4.966885   0.496686  -0.045491   0.003952
    16  C   -0.033196  -0.050009   0.496686   5.046105   0.466161  -0.000737
    17  C   -0.058939  -0.030076  -0.045491   0.466161   5.024354   0.007335
    18  H    0.403283  -0.028974   0.003952  -0.000737   0.007335   0.479884
    19  H   -0.024101   0.398702  -0.033301   0.006218  -0.000283  -0.002902
    20  H   -0.000218   0.006031  -0.033349   0.398769  -0.023627   0.000049
    21  H    0.007369  -0.000726   0.003934  -0.028325   0.402680  -0.000155
    22  C   -0.042273   0.004007  -0.000975   0.003402  -0.040886  -0.006219
    23  F    0.005073  -0.000169  -0.000063   0.001469   0.009670   0.000202
    24  F    0.009992   0.001987  -0.000067  -0.000213   0.004844   0.006062
    25  F    0.003137  -0.000486  -0.000065  -0.000057   0.002753   0.000296
              19         20         21         22         23         24
     1  C    0.000965   0.000665   0.000173  -0.000178   0.000003  -0.000001
     2  C    0.001781   0.000916   0.000034   0.000005  -0.000000   0.000000
     3  C    0.000294  -0.000149  -0.000000   0.000000  -0.000000   0.000000
     4  C   -0.000019  -0.000019  -0.000000   0.000000   0.000000   0.000000
     5  C   -0.000159   0.000312  -0.000001  -0.000000  -0.000000  -0.000000
     6  C    0.000845   0.001738  -0.000000   0.000010  -0.000000   0.000000
     7  H   -0.001529   0.000077   0.000002   0.000001   0.000000   0.000000
     8  H    0.000043   0.000002   0.000000  -0.000000  -0.000000  -0.000000
     9  H    0.000000   0.000000  -0.000000  -0.000000   0.000000   0.000000
    10  H    0.000002   0.000043   0.000000   0.000000  -0.000000  -0.000000
    11  H    0.000072  -0.001506   0.000042   0.000001  -0.000000   0.000000
    12  C    0.003164   0.003075  -0.028249   0.456411  -0.082740  -0.083235
    13  C   -0.024101  -0.000218   0.007369  -0.042273   0.005073   0.009992
    14  C    0.398702   0.006031  -0.000726   0.004007  -0.000169   0.001987
    15  C   -0.033301  -0.033349   0.003934  -0.000975  -0.000063  -0.000067
    16  C    0.006218   0.398769  -0.028325   0.003402   0.001469  -0.000213
    17  C   -0.000283  -0.023627   0.402680  -0.040886   0.009670   0.004844
    18  H   -0.002902   0.000049  -0.000155  -0.006219   0.000202   0.006062
    19  H    0.475758  -0.000212   0.000048  -0.000058   0.000003  -0.000015
    20  H   -0.000212   0.475922  -0.002865  -0.000044  -0.000014   0.000003
    21  H    0.000048  -0.002865   0.479809  -0.005992   0.006077   0.000209
    22  C   -0.000058  -0.000044  -0.005992   4.098837   0.335610   0.335678
    23  F    0.000003  -0.000014   0.006077   0.335610   8.995937  -0.045128
    24  F   -0.000015   0.000003   0.000209   0.335678  -0.045128   8.995670
    25  F    0.000001   0.000003   0.000252   0.347115  -0.047567  -0.047532
              25
     1  C   -0.000008
     2  C    0.000000
     3  C   -0.000000
     4  C    0.000000
     5  C    0.000000
     6  C   -0.000000
     7  H   -0.000000
     8  H   -0.000000
     9  H   -0.000000
    10  H   -0.000000
    11  H    0.000000
    12  C   -0.089230
    13  C    0.003137
    14  C   -0.000486
    15  C   -0.000065
    16  C   -0.000057
    17  C    0.002753
    18  H    0.000296
    19  H    0.000001
    20  H    0.000003
    21  H    0.000252
    22  C    0.347115
    23  F   -0.047567
    24  F   -0.047532
    25  F    9.001794
 Mulliken charges:
               1
     1  C    0.100179
     2  C   -0.211149
     3  C   -0.147212
     4  C   -0.144495
     5  C   -0.147269
     6  C   -0.210722
     7  H    0.169975
     8  H    0.147107
     9  H    0.144968
    10  H    0.147100
    11  H    0.170047
    12  C   -0.043291
    13  C   -0.165054
    14  C   -0.201009
    15  C    0.090090
    16  C   -0.202882
    17  C   -0.165434
    18  H    0.165766
    19  H    0.174682
    20  H    0.174397
    21  H    0.165683
    22  C    0.515547
    23  F   -0.178360
    24  F   -0.178255
    25  F   -0.170409
 Sum of Mulliken charges =  -0.00000
 Mulliken charges with hydrogens summed into heavy atoms:
               1
     1  C    0.100179
     2  C   -0.041174
     3  C   -0.000105
     4  C    0.000473
     5  C   -0.000169
     6  C   -0.040674
    12  C   -0.043291
    13  C    0.000712
    14  C   -0.026327
    15  C    0.090090
    16  C   -0.028485
    17  C    0.000250
    22  C    0.515547
    23  F   -0.178360
    24  F   -0.178255
    25  F   -0.170409
 Electronic spatial extent (au):  <R**2>=           4981.0535
 Charge=             -0.0000 electrons
 Dipole moment (field-independent basis, Debye):
    X=             -2.9946    Y=              0.0061    Z=             -0.0112  Tot=              2.9947
 Quadrupole moment (field-independent basis, Debye-Ang):
   XX=            -92.3192   YY=            -82.9344   ZZ=            -94.7291
   XY=              0.0218   XZ=             -0.0439   YZ=              0.2536
 Traceless Quadrupole moment (field-independent basis, Debye-Ang):
   XX=             -2.3250   YY=              7.0598   ZZ=             -4.7349
   XY=              0.0218   XZ=             -0.0439   YZ=              0.2536
 Octapole moment (field-independent basis, Debye-Ang**2):
  XXX=            -13.2641  YYY=             -1.1292  ZZZ=             -0.2595  XYY=             17.5326
  XXY=              0.0398  XXZ=             -0.0840  XZZ=             34.9557  YZZ=              1.0717
  YYZ=              0.4166  XYZ=             14.1305
 Hexadecapole moment (field-independent basis, Debye-Ang**3):
 XXXX=          -5177.8576 YYYY=           -559.6979 ZZZZ=           -257.8785 XXXY=              0.1208
 XXXZ=             -0.2295 YYYX=             -3.9147 YYYZ=              1.6829 ZZZX=             -1.5517
 ZZZY=              0.6246 XXYY=           -953.5665 XXZZ=          -1000.5371 YYZZ=           -134.5301
 XXYZ=            -43.6282 YYXZ=              1.3744 ZZXY=              3.9509
 N-N= 1.010986234449D+03 E-N=-3.897355602964D+03  KE= 7.966606241660D+02
 ******************************Gaussian NBO Version 3.1******************************
             N A T U R A L   A T O M I C   O R B I T A L   A N D
          N A T U R A L   B O N D   O R B I T A L   A N A L Y S I S
 ******************************Gaussian NBO Version 3.1******************************
       /RESON  / : Allow strongly delocalized NBO set

 Analyzing the SCF density

 Job title: Structure697                                                    

 Storage needed:    909950 in NPA,   1212306 in NBO (1048572625 available)
 GSVD:  LWork=       88650 too small for GESVD, short by      336125 words or      336125 for optimal perf.


 NATURAL POPULATIONS:  Natural atomic orbital occupancies 
                                                          
   NAO  Atom  No  lang   Type(AO)    Occupancy      Energy
 ----------------------------------------------------------
     1    C    1  S      Cor( 1S)     1.99911     -10.39973
     2    C    1  S      Val( 2S)     0.90915      -0.21085
     3    C    1  S      Ryd( 3S)     0.00084       1.42233
     4    C    1  S      Ryd( 4S)     0.00020       1.72493
     5    C    1  S      Ryd( 5S)     0.00000      21.36804
     6    C    1  px     Val( 2p)     1.04066      -0.06691
     7    C    1  px     Ryd( 3p)     0.00626       1.24930
     8    C    1  px     Ryd( 4p)     0.00045       1.87086
     9    C    1  py     Val( 2p)     1.06848      -0.08743
    10    C    1  py     Ryd( 3p)     0.00409       1.11146
    11    C    1  py     Ryd( 4p)     0.00043       1.48167
    12    C    1  pz     Val( 2p)     1.01955      -0.11588
    13    C    1  pz     Ryd( 3p)     0.00200       0.82852
    14    C    1  pz     Ryd( 4p)     0.00018       1.33292
    15    C    1  dxy    Ryd( 3d)     0.00145       2.26017
    16    C    1  dxy    Ryd( 4d)     0.00040       3.36465
    17    C    1  dxz    Ryd( 3d)     0.00038       1.42916
    18    C    1  dxz    Ryd( 4d)     0.00029       3.32940
    19    C    1  dyz    Ryd( 3d)     0.00028       1.61455
    20    C    1  dyz    Ryd( 4d)     0.00030       3.34344
    21    C    1  dx2y2  Ryd( 3d)     0.00133       2.36169
    22    C    1  dx2y2  Ryd( 4d)     0.00056       3.41998
    23    C    1  dz2    Ryd( 3d)     0.00037       1.66804
    24    C    1  dz2    Ryd( 4d)     0.00030       3.48668
    25    C    1  f(0)   Ryd( 4f)     0.00009       3.64650
    26    C    1  f(C1)  Ryd( 4f)     0.00007       3.69335
    27    C    1  f(S1)  Ryd( 4f)     0.00009       3.50562
    28    C    1  f(C2)  Ryd( 4f)     0.00005       3.72611
    29    C    1  f(S2)  Ryd( 4f)     0.00006       3.82472
    30    C    1  f(C3)  Ryd( 4f)     0.00009       4.23460
    31    C    1  f(S3)  Ryd( 4f)     0.00005       4.21714
 
    32    C    2  S      Cor( 1S)     1.99916     -10.39067
    33    C    2  S      Val( 2S)     0.97028      -0.23686
    34    C    2  S      Ryd( 3S)     0.00104       1.31979
    35    C    2  S      Ryd( 4S)     0.00021       1.49667
    36    C    2  S      Ryd( 5S)     0.00001      21.38954
    37    C    2  px     Val( 2p)     1.07997      -0.07634
    38    C    2  px     Ryd( 3p)     0.00318       1.15026
    39    C    2  px     Ryd( 4p)     0.00017       2.39816
    40    C    2  py     Val( 2p)     1.10936      -0.08265
    41    C    2  py     Ryd( 3p)     0.00372       1.02312
    42    C    2  py     Ryd( 4p)     0.00026       2.43445
    43    C    2  pz     Val( 2p)     1.01897      -0.11669
    44    C    2  pz     Ryd( 3p)     0.00174       0.72957
    45    C    2  pz     Ryd( 4p)     0.00034       1.63570
    46    C    2  dxy    Ryd( 3d)     0.00163       1.75084
    47    C    2  dxy    Ryd( 4d)     0.00068       3.48268
    48    C    2  dxz    Ryd( 3d)     0.00042       1.46664
    49    C    2  dxz    Ryd( 4d)     0.00030       3.09428
    50    C    2  dyz    Ryd( 3d)     0.00071       1.49513
    51    C    2  dyz    Ryd( 4d)     0.00014       3.15103
    52    C    2  dx2y2  Ryd( 3d)     0.00145       1.75336
    53    C    2  dx2y2  Ryd( 4d)     0.00039       3.42274
    54    C    2  dz2    Ryd( 3d)     0.00080       1.49693
    55    C    2  dz2    Ryd( 4d)     0.00005       3.20862
    56    C    2  f(0)   Ryd( 4f)     0.00024       3.48490
    57    C    2  f(C1)  Ryd( 4f)     0.00012       3.54286
    58    C    2  f(S1)  Ryd( 4f)     0.00021       3.35812
    59    C    2  f(C2)  Ryd( 4f)     0.00009       3.57465
    60    C    2  f(S2)  Ryd( 4f)     0.00009       3.62745
    61    C    2  f(C3)  Ryd( 4f)     0.00012       4.14868
    62    C    2  f(S3)  Ryd( 4f)     0.00006       3.90388
 
    63    C    3  S      Cor( 1S)     1.99924     -10.39069
    64    C    3  S      Val( 2S)     0.97641      -0.24278
    65    C    3  S      Ryd( 3S)     0.00096       1.05419
    66    C    3  S      Ryd( 4S)     0.00017       1.42674
    67    C    3  S      Ryd( 5S)     0.00000      21.59508
    68    C    3  px     Val( 2p)     1.07650      -0.07236
    69    C    3  px     Ryd( 3p)     0.00387       1.04713
    70    C    3  px     Ryd( 4p)     0.00026       2.18863
    71    C    3  py     Val( 2p)     1.11841      -0.08534
    72    C    3  py     Ryd( 3p)     0.00400       1.08390
    73    C    3  py     Ryd( 4p)     0.00018       2.00168
    74    C    3  pz     Val( 2p)     1.01482      -0.11632
    75    C    3  pz     Ryd( 3p)     0.00184       0.77252
    76    C    3  pz     Ryd( 4p)     0.00032       1.45913
    77    C    3  dxy    Ryd( 3d)     0.00112       1.80824
    78    C    3  dxy    Ryd( 4d)     0.00064       3.46888
    79    C    3  dxz    Ryd( 3d)     0.00034       1.45729
    80    C    3  dxz    Ryd( 4d)     0.00027       3.05516
    81    C    3  dyz    Ryd( 3d)     0.00065       1.46388
    82    C    3  dyz    Ryd( 4d)     0.00018       3.10765
    83    C    3  dx2y2  Ryd( 3d)     0.00173       1.66622
    84    C    3  dx2y2  Ryd( 4d)     0.00050       3.36912
    85    C    3  dz2    Ryd( 3d)     0.00057       1.47554
    86    C    3  dz2    Ryd( 4d)     0.00008       3.16266
    87    C    3  f(0)   Ryd( 4f)     0.00022       3.45509
    88    C    3  f(C1)  Ryd( 4f)     0.00012       3.54949
    89    C    3  f(S1)  Ryd( 4f)     0.00015       3.31913
    90    C    3  f(C2)  Ryd( 4f)     0.00008       3.57273
    91    C    3  f(S2)  Ryd( 4f)     0.00007       3.58921
    92    C    3  f(C3)  Ryd( 4f)     0.00007       4.13277
    93    C    3  f(S3)  Ryd( 4f)     0.00007       3.85990
 
    94    C    4  S      Cor( 1S)     1.99924     -10.38949
    95    C    4  S      Val( 2S)     0.97742      -0.24333
    96    C    4  S      Ryd( 3S)     0.00092       1.07392
    97    C    4  S      Ryd( 4S)     0.00017       1.38616
    98    C    4  S      Ryd( 5S)     0.00000      21.64015
    99    C    4  px     Val( 2p)     1.17080      -0.07880
   100    C    4  px     Ryd( 3p)     0.00460       1.18677
   101    C    4  px     Ryd( 4p)     0.00016       2.08789
   102    C    4  py     Val( 2p)     1.04015      -0.07819
   103    C    4  py     Ryd( 3p)     0.00332       0.95104
   104    C    4  py     Ryd( 4p)     0.00032       2.12228
   105    C    4  pz     Val( 2p)     1.00291      -0.11508
   106    C    4  pz     Ryd( 3p)     0.00189       0.73318
   107    C    4  pz     Ryd( 4p)     0.00038       1.47637
   108    C    4  dxy    Ryd( 3d)     0.00168       1.68394
   109    C    4  dxy    Ryd( 4d)     0.00046       3.22822
   110    C    4  dxz    Ryd( 3d)     0.00057       1.40803
   111    C    4  dxz    Ryd( 4d)     0.00014       2.85659
   112    C    4  dyz    Ryd( 3d)     0.00055       1.61778
   113    C    4  dyz    Ryd( 4d)     0.00017       3.19754
   114    C    4  dx2y2  Ryd( 3d)     0.00086       1.92204
   115    C    4  dx2y2  Ryd( 4d)     0.00070       3.43598
   116    C    4  dz2    Ryd( 3d)     0.00047       1.56672
   117    C    4  dz2    Ryd( 4d)     0.00017       3.12017
   118    C    4  f(0)   Ryd( 4f)     0.00014       3.43762
   119    C    4  f(C1)  Ryd( 4f)     0.00016       3.46141
   120    C    4  f(S1)  Ryd( 4f)     0.00016       3.46419
   121    C    4  f(C2)  Ryd( 4f)     0.00007       3.46265
   122    C    4  f(S2)  Ryd( 4f)     0.00011       3.68006
   123    C    4  f(C3)  Ryd( 4f)     0.00006       4.11123
   124    C    4  f(S3)  Ryd( 4f)     0.00006       3.81917
 
   125    C    5  S      Cor( 1S)     1.99924     -10.39073
   126    C    5  S      Val( 2S)     0.97645      -0.24283
   127    C    5  S      Ryd( 3S)     0.00096       1.05384
   128    C    5  S      Ryd( 4S)     0.00017       1.42668
   129    C    5  S      Ryd( 5S)     0.00000      21.59601
   130    C    5  px     Val( 2p)     1.07644      -0.07235
   131    C    5  px     Ryd( 3p)     0.00387       1.04708
   132    C    5  px     Ryd( 4p)     0.00027       2.18820
   133    C    5  py     Val( 2p)     1.11840      -0.08534
   134    C    5  py     Ryd( 3p)     0.00400       1.08387
   135    C    5  py     Ryd( 4p)     0.00018       2.00176
   136    C    5  pz     Val( 2p)     1.01482      -0.11633
   137    C    5  pz     Ryd( 3p)     0.00184       0.77251
   138    C    5  pz     Ryd( 4p)     0.00032       1.45915
   139    C    5  dxy    Ryd( 3d)     0.00112       1.80812
   140    C    5  dxy    Ryd( 4d)     0.00064       3.46885
   141    C    5  dxz    Ryd( 3d)     0.00034       1.45726
   142    C    5  dxz    Ryd( 4d)     0.00027       3.05511
   143    C    5  dyz    Ryd( 3d)     0.00065       1.46388
   144    C    5  dyz    Ryd( 4d)     0.00018       3.10763
   145    C    5  dx2y2  Ryd( 3d)     0.00172       1.66620
   146    C    5  dx2y2  Ryd( 4d)     0.00050       3.36912
   147    C    5  dz2    Ryd( 3d)     0.00057       1.47549
   148    C    5  dz2    Ryd( 4d)     0.00008       3.16259
   149    C    5  f(0)   Ryd( 4f)     0.00022       3.45502
   150    C    5  f(C1)  Ryd( 4f)     0.00012       3.54938
   151    C    5  f(S1)  Ryd( 4f)     0.00015       3.31905
   152    C    5  f(C2)  Ryd( 4f)     0.00008       3.57263
   153    C    5  f(S2)  Ryd( 4f)     0.00007       3.58913
   154    C    5  f(C3)  Ryd( 4f)     0.00007       4.13258
   155    C    5  f(S3)  Ryd( 4f)     0.00007       3.85989
 
   156    C    6  S      Cor( 1S)     1.99915     -10.39067
   157    C    6  S      Val( 2S)     0.97025      -0.23684
   158    C    6  S      Ryd( 3S)     0.00104       1.31820
   159    C    6  S      Ryd( 4S)     0.00021       1.49234
   160    C    6  S      Ryd( 5S)     0.00001      21.38991
   161    C    6  px     Val( 2p)     1.07999      -0.07636
   162    C    6  px     Ryd( 3p)     0.00318       1.15014
   163    C    6  px     Ryd( 4p)     0.00018       2.39832
   164    C    6  py     Val( 2p)     1.10934      -0.08266
   165    C    6  py     Ryd( 3p)     0.00372       1.02303
   166    C    6  py     Ryd( 4p)     0.00026       2.43449
   167    C    6  pz     Val( 2p)     1.01905      -0.11669
   168    C    6  pz     Ryd( 3p)     0.00173       0.72958
   169    C    6  pz     Ryd( 4p)     0.00034       1.63596
   170    C    6  dxy    Ryd( 3d)     0.00163       1.75091
   171    C    6  dxy    Ryd( 4d)     0.00068       3.48255
   172    C    6  dxz    Ryd( 3d)     0.00042       1.46671
   173    C    6  dxz    Ryd( 4d)     0.00030       3.09414
   174    C    6  dyz    Ryd( 3d)     0.00072       1.49523
   175    C    6  dyz    Ryd( 4d)     0.00014       3.15099
   176    C    6  dx2y2  Ryd( 3d)     0.00145       1.75338
   177    C    6  dx2y2  Ryd( 4d)     0.00039       3.42250
   178    C    6  dz2    Ryd( 3d)     0.00080       1.49700
   179    C    6  dz2    Ryd( 4d)     0.00005       3.20850
   180    C    6  f(0)   Ryd( 4f)     0.00024       3.48486
   181    C    6  f(C1)  Ryd( 4f)     0.00012       3.54280
   182    C    6  f(S1)  Ryd( 4f)     0.00021       3.35818
   183    C    6  f(C2)  Ryd( 4f)     0.00009       3.57468
   184    C    6  f(S2)  Ryd( 4f)     0.00009       3.62746
   185    C    6  f(C3)  Ryd( 4f)     0.00012       4.14866
   186    C    6  f(S3)  Ryd( 4f)     0.00006       3.90387
 
   187    H    7  S      Val( 1S)     0.78284       0.04421
   188    H    7  S      Ryd( 2S)     0.00051       1.37905
   189    H    7  S      Ryd( 3S)     0.00013       1.54433
   190    H    7  px     Ryd( 2p)     0.00018       2.85264
   191    H    7  py     Ryd( 2p)     0.00030       2.85796
   192    H    7  pz     Ryd( 2p)     0.00013       2.33455
 
   193    H    8  S      Val( 1S)     0.78299       0.04461
   194    H    8  S      Ryd( 2S)     0.00036       1.02324
   195    H    8  S      Ryd( 3S)     0.00018       1.73948
   196    H    8  px     Ryd( 2p)     0.00014       2.84163
   197    H    8  py     Ryd( 2p)     0.00028       2.83979
   198    H    8  pz     Ryd( 2p)     0.00010       2.30064
 
   199    H    9  S      Val( 1S)     0.78513       0.04551
   200    H    9  S      Ryd( 2S)     0.00034       0.94963
   201    H    9  S      Ryd( 3S)     0.00018       1.82446
   202    H    9  px     Ryd( 2p)     0.00042       3.02195
   203    H    9  py     Ryd( 2p)     0.00005       2.68416
   204    H    9  pz     Ryd( 2p)     0.00006       2.27044
 
   205    H   10  S      Val( 1S)     0.78298       0.04460
   206    H   10  S      Ryd( 2S)     0.00036       1.02259
   207    H   10  S      Ryd( 3S)     0.00018       1.74012
   208    H   10  px     Ryd( 2p)     0.00014       2.84147
   209    H   10  py     Ryd( 2p)     0.00028       2.83974
   210    H   10  pz     Ryd( 2p)     0.00010       2.30064
 
   211    H   11  S      Val( 1S)     0.78282       0.04422
   212    H   11  S      Ryd( 2S)     0.00051       1.37785
   213    H   11  S      Ryd( 3S)     0.00013       1.54585
   214    H   11  px     Ryd( 2p)     0.00018       2.85273
   215    H   11  py     Ryd( 2p)     0.00030       2.85800
   216    H   11  pz     Ryd( 2p)     0.00013       2.33458
 
   217    C   12  S      Cor( 1S)     1.99900     -10.41855
   218    C   12  S      Val( 2S)     0.95335      -0.25799
   219    C   12  S      Ryd( 3S)     0.00120       1.42560
   220    C   12  S      Ryd( 4S)     0.00016       1.57911
   221    C   12  S      Ryd( 5S)     0.00000      21.42693
   222    C   12  px     Val( 2p)     1.02051      -0.10679
   223    C   12  px     Ryd( 3p)     0.00472       1.23240
   224    C   12  px     Ryd( 4p)     0.00040       2.20272
   225    C   12  py     Val( 2p)     1.08625      -0.10898
   226    C   12  py     Ryd( 3p)     0.00316       1.20838
   227    C   12  py     Ryd( 4p)     0.00023       2.04264
   228    C   12  pz     Val( 2p)     1.06113      -0.13842
   229    C   12  pz     Ryd( 3p)     0.00194       0.89522
   230    C   12  pz     Ryd( 4p)     0.00058       1.47339
   231    C   12  dxy    Ryd( 3d)     0.00214       1.53730
   232    C   12  dxy    Ryd( 4d)     0.00051       3.54319
   233    C   12  dxz    Ryd( 3d)     0.00125       1.20535
   234    C   12  dxz    Ryd( 4d)     0.00024       3.34980
   235    C   12  dyz    Ryd( 3d)     0.00061       1.36318
   236    C   12  dyz    Ryd( 4d)     0.00031       3.41034
   237    C   12  dx2y2  Ryd( 3d)     0.00281       1.66309
   238    C   12  dx2y2  Ryd( 4d)     0.00070       3.61603
   239    C   12  dz2    Ryd( 3d)     0.00112       1.29848
   240    C   12  dz2    Ryd( 4d)     0.00025       3.45282
   241    C   12  f(0)   Ryd( 4f)     0.00020       3.51848
   242    C   12  f(C1)  Ryd( 4f)     0.00026       3.45554
   243    C   12  f(S1)  Ryd( 4f)     0.00018       3.45190
   244    C   12  f(C2)  Ryd( 4f)     0.00014       3.59948
   245    C   12  f(S2)  Ryd( 4f)     0.00007       3.72869
   246    C   12  f(C3)  Ryd( 4f)     0.00018       4.17683
   247    C   12  f(S3)  Ryd( 4f)     0.00006       4.04479
 
   248    C   13  S      Cor( 1S)     1.99918     -10.40285
   249    C   13  S      Val( 2S)     0.97301      -0.25011
   250    C   13  S      Ryd( 3S)     0.00119       1.18204
   251    C   13  S      Ryd( 4S)     0.00019       1.39066
   252    C   13  S      Ryd( 5S)     0.00000      21.61803
   253    C   13  px     Val( 2p)     1.08165      -0.08521
   254    C   13  px     Ryd( 3p)     0.00320       1.12076
   255    C   13  px     Ryd( 4p)     0.00029       2.32801
   256    C   13  py     Val( 2p)     1.10981      -0.09417
   257    C   13  py     Ryd( 3p)     0.00375       1.05964
   258    C   13  py     Ryd( 4p)     0.00021       2.19700
   259    C   13  pz     Val( 2p)     1.00052      -0.12494
   260    C   13  pz     Ryd( 3p)     0.00164       0.76249
   261    C   13  pz     Ryd( 4p)     0.00035       1.54464
   262    C   13  dxy    Ryd( 3d)     0.00128       1.81507
   263    C   13  dxy    Ryd( 4d)     0.00070       3.48489
   264    C   13  dxz    Ryd( 3d)     0.00040       1.46629
   265    C   13  dxz    Ryd( 4d)     0.00030       3.05664
   266    C   13  dyz    Ryd( 3d)     0.00063       1.48752
   267    C   13  dyz    Ryd( 4d)     0.00012       3.11802
   268    C   13  dx2y2  Ryd( 3d)     0.00145       1.71775
   269    C   13  dx2y2  Ryd( 4d)     0.00042       3.40551
   270    C   13  dz2    Ryd( 3d)     0.00058       1.49743
   271    C   13  dz2    Ryd( 4d)     0.00007       3.17041
   272    C   13  f(0)   Ryd( 4f)     0.00022       3.44579
   273    C   13  f(C1)  Ryd( 4f)     0.00011       3.56296
   274    C   13  f(S1)  Ryd( 4f)     0.00016       3.31901
   275    C   13  f(C2)  Ryd( 4f)     0.00008       3.56261
   276    C   13  f(S2)  Ryd( 4f)     0.00008       3.60799
   277    C   13  f(C3)  Ryd( 4f)     0.00008       4.15332
   278    C   13  f(S3)  Ryd( 4f)     0.00007       3.88379
 
   279    C   14  S      Cor( 1S)     1.99916     -10.39728
   280    C   14  S      Val( 2S)     0.96995      -0.24245
   281    C   14  S      Ryd( 3S)     0.00108       1.30133
   282    C   14  S      Ryd( 4S)     0.00022       1.55634
   283    C   14  S      Ryd( 5S)     0.00001      21.37745
   284    C   14  px     Val( 2p)     1.07487      -0.08161
   285    C   14  px     Ryd( 3p)     0.00323       1.15613
   286    C   14  px     Ryd( 4p)     0.00017       2.39346
   287    C   14  py     Val( 2p)     1.11446      -0.09084
   288    C   14  py     Ryd( 3p)     0.00368       1.02565
   289    C   14  py     Ryd( 4p)     0.00027       2.46786
   290    C   14  pz     Val( 2p)     1.01859      -0.12276
   291    C   14  pz     Ryd( 3p)     0.00170       0.73162
   292    C   14  pz     Ryd( 4p)     0.00036       1.65202
   293    C   14  dxy    Ryd( 3d)     0.00157       1.78450
   294    C   14  dxy    Ryd( 4d)     0.00064       3.48010
   295    C   14  dxz    Ryd( 3d)     0.00041       1.48712
   296    C   14  dxz    Ryd( 4d)     0.00029       3.07754
   297    C   14  dyz    Ryd( 3d)     0.00074       1.51306
   298    C   14  dyz    Ryd( 4d)     0.00014       3.13196
   299    C   14  dx2y2  Ryd( 3d)     0.00155       1.78752
   300    C   14  dx2y2  Ryd( 4d)     0.00038       3.41909
   301    C   14  dz2    Ryd( 3d)     0.00081       1.51452
   302    C   14  dz2    Ryd( 4d)     0.00005       3.18815
   303    C   14  f(0)   Ryd( 4f)     0.00025       3.48055
   304    C   14  f(C1)  Ryd( 4f)     0.00012       3.55568
   305    C   14  f(S1)  Ryd( 4f)     0.00021       3.35256
   306    C   14  f(C2)  Ryd( 4f)     0.00010       3.57283
   307    C   14  f(S2)  Ryd( 4f)     0.00009       3.62848
   308    C   14  f(C3)  Ryd( 4f)     0.00012       4.14802
   309    C   14  f(S3)  Ryd( 4f)     0.00006       3.90540
 
   310    C   15  S      Cor( 1S)     1.99911     -10.40519
   311    C   15  S      Val( 2S)     0.91093      -0.21585
   312    C   15  S      Ryd( 3S)     0.00087       1.41482
   313    C   15  S      Ryd( 4S)     0.00019       1.76070
   314    C   15  S      Ryd( 5S)     0.00000      21.32754
   315    C   15  px     Val( 2p)     1.04469      -0.06994
   316    C   15  px     Ryd( 3p)     0.00633       1.24586
   317    C   15  px     Ryd( 4p)     0.00053       1.87070
   318    C   15  py     Val( 2p)     1.05941      -0.08864
   319    C   15  py     Ryd( 3p)     0.00410       1.11033
   320    C   15  py     Ryd( 4p)     0.00049       1.48966
   321    C   15  pz     Val( 2p)     0.99562      -0.11774
   322    C   15  pz     Ryd( 3p)     0.00188       0.82608
   323    C   15  pz     Ryd( 4p)     0.00018       1.33552
   324    C   15  dxy    Ryd( 3d)     0.00146       2.22306
   325    C   15  dxy    Ryd( 4d)     0.00043       3.47330
   326    C   15  dxz    Ryd( 3d)     0.00044       1.40057
   327    C   15  dxz    Ryd( 4d)     0.00029       3.37020
   328    C   15  dyz    Ryd( 3d)     0.00027       1.58007
   329    C   15  dyz    Ryd( 4d)     0.00030       3.39190
   330    C   15  dx2y2  Ryd( 3d)     0.00123       2.30491
   331    C   15  dx2y2  Ryd( 4d)     0.00059       3.48727
   332    C   15  dz2    Ryd( 3d)     0.00039       1.63729
   333    C   15  dz2    Ryd( 4d)     0.00029       3.51729
   334    C   15  f(0)   Ryd( 4f)     0.00009       3.65303
   335    C   15  f(C1)  Ryd( 4f)     0.00007       3.69130
   336    C   15  f(S1)  Ryd( 4f)     0.00008       3.50426
   337    C   15  f(C2)  Ryd( 4f)     0.00005       3.72775
   338    C   15  f(S2)  Ryd( 4f)     0.00006       3.82640
   339    C   15  f(C3)  Ryd( 4f)     0.00009       4.23829
   340    C   15  f(S3)  Ryd( 4f)     0.00005       4.21845
 
   341    C   16  S      Cor( 1S)     1.99916     -10.39729
   342    C   16  S      Val( 2S)     0.97000      -0.24247
   343    C   16  S      Ryd( 3S)     0.00108       1.30154
   344    C   16  S      Ryd( 4S)     0.00021       1.56220
   345    C   16  S      Ryd( 5S)     0.00001      21.37621
   346    C   16  px     Val( 2p)     1.07480      -0.08158
   347    C   16  px     Ryd( 3p)     0.00322       1.15616
   348    C   16  px     Ryd( 4p)     0.00017       2.39089
   349    C   16  py     Val( 2p)     1.11433      -0.09079
   350    C   16  py     Ryd( 3p)     0.00367       1.02700
   351    C   16  py     Ryd( 4p)     0.00027       2.46703
   352    C   16  pz     Val( 2p)     1.01871      -0.12278
   353    C   16  pz     Ryd( 3p)     0.00170       0.73003
   354    C   16  pz     Ryd( 4p)     0.00036       1.65098
   355    C   16  dxy    Ryd( 3d)     0.00157       1.78396
   356    C   16  dxy    Ryd( 4d)     0.00064       3.48114
   357    C   16  dxz    Ryd( 3d)     0.00041       1.48712
   358    C   16  dxz    Ryd( 4d)     0.00029       3.07733
   359    C   16  dyz    Ryd( 3d)     0.00073       1.51203
   360    C   16  dyz    Ryd( 4d)     0.00014       3.13133
   361    C   16  dx2y2  Ryd( 3d)     0.00155       1.78772
   362    C   16  dx2y2  Ryd( 4d)     0.00038       3.42009
   363    C   16  dz2    Ryd( 3d)     0.00081       1.51415
   364    C   16  dz2    Ryd( 4d)     0.00005       3.18940
   365    C   16  f(0)   Ryd( 4f)     0.00025       3.48067
   366    C   16  f(C1)  Ryd( 4f)     0.00012       3.55639
   367    C   16  f(S1)  Ryd( 4f)     0.00021       3.35275
   368    C   16  f(C2)  Ryd( 4f)     0.00010       3.57287
   369    C   16  f(S2)  Ryd( 4f)     0.00009       3.62769
   370    C   16  f(C3)  Ryd( 4f)     0.00012       4.14783
   371    C   16  f(S3)  Ryd( 4f)     0.00006       3.90475
 
   372    C   17  S      Cor( 1S)     1.99918     -10.40282
   373    C   17  S      Val( 2S)     0.97295      -0.25007
   374    C   17  S      Ryd( 3S)     0.00119       1.18022
   375    C   17  S      Ryd( 4S)     0.00019       1.38011
   376    C   17  S      Ryd( 5S)     0.00000      21.61838
   377    C   17  px     Val( 2p)     1.08172      -0.08523
   378    C   17  px     Ryd( 3p)     0.00321       1.12048
   379    C   17  px     Ryd( 4p)     0.00029       2.32704
   380    C   17  py     Val( 2p)     1.10974      -0.09417
   381    C   17  py     Ryd( 3p)     0.00374       1.06264
   382    C   17  py     Ryd( 4p)     0.00019       2.17767
   383    C   17  pz     Val( 2p)     1.00059      -0.12495
   384    C   17  pz     Ryd( 3p)     0.00165       0.75961
   385    C   17  pz     Ryd( 4p)     0.00037       1.56109
   386    C   17  dxy    Ryd( 3d)     0.00128       1.81646
   387    C   17  dxy    Ryd( 4d)     0.00071       3.47957
   388    C   17  dxz    Ryd( 3d)     0.00040       1.46611
   389    C   17  dxz    Ryd( 4d)     0.00029       3.06145
   390    C   17  dyz    Ryd( 3d)     0.00063       1.47981
   391    C   17  dyz    Ryd( 4d)     0.00012       3.11015
   392    C   17  dx2y2  Ryd( 3d)     0.00146       1.72427
   393    C   17  dx2y2  Ryd( 4d)     0.00040       3.41341
   394    C   17  dz2    Ryd( 3d)     0.00057       1.49995
   395    C   17  dz2    Ryd( 4d)     0.00009       3.16917
   396    C   17  f(0)   Ryd( 4f)     0.00021       3.44557
   397    C   17  f(C1)  Ryd( 4f)     0.00012       3.57074
   398    C   17  f(S1)  Ryd( 4f)     0.00017       3.32137
   399    C   17  f(C2)  Ryd( 4f)     0.00008       3.56554
   400    C   17  f(S2)  Ryd( 4f)     0.00007       3.60844
   401    C   17  f(C3)  Ryd( 4f)     0.00008       4.14559
   402    C   17  f(S3)  Ryd( 4f)     0.00007       3.87887
 
   403    H   18  S      Val( 1S)     0.76977       0.04192
   404    H   18  S      Ryd( 2S)     0.00043       1.24011
   405    H   18  S      Ryd( 3S)     0.00018       1.55085
   406    H   18  px     Ryd( 2p)     0.00016       2.85097
   407    H   18  py     Ryd( 2p)     0.00028       2.85355
   408    H   18  pz     Ryd( 2p)     0.00011       2.31028
 
   409    H   19  S      Val( 1S)     0.77757       0.04097
   410    H   19  S      Ryd( 2S)     0.00049       1.41028
   411    H   19  S      Ryd( 3S)     0.00013       1.52454
   412    H   19  px     Ryd( 2p)     0.00018       2.86955
   413    H   19  py     Ryd( 2p)     0.00029       2.85696
   414    H   19  pz     Ryd( 2p)     0.00013       2.33380
 
   415    H   20  S      Val( 1S)     0.77758       0.04104
   416    H   20  S      Ryd( 2S)     0.00049       1.41379
   417    H   20  S      Ryd( 3S)     0.00013       1.52108
   418    H   20  px     Ryd( 2p)     0.00018       2.86967
   419    H   20  py     Ryd( 2p)     0.00029       2.85757
   420    H   20  pz     Ryd( 2p)     0.00013       2.33360
 
   421    H   21  S      Val( 1S)     0.76982       0.04193
   422    H   21  S      Ryd( 2S)     0.00043       1.24169
   423    H   21  S      Ryd( 3S)     0.00018       1.54973
   424    H   21  px     Ryd( 2p)     0.00016       2.85147
   425    H   21  py     Ryd( 2p)     0.00028       2.85339
   426    H   21  pz     Ryd( 2p)     0.00011       2.31043
 
   427    C   22  S      Cor( 1S)     1.99924     -10.70659
   428    C   22  S      Val( 2S)     0.81631      -0.28905
   429    C   22  S      Ryd( 3S)     0.00547       1.49295
   430    C   22  S      Ryd( 4S)     0.00016       1.56046
   431    C   22  S      Ryd( 5S)     0.00000      21.85051
   432    C   22  px     Val( 2p)     0.91220      -0.15949
   433    C   22  px     Ryd( 4p)     0.00651       1.28061
   434    C   22  px     Ryd( 3p)     0.00011       0.89894
   435    C   22  py     Val( 2p)     0.62102      -0.11439
   436    C   22  py     Ryd( 4p)     0.01080       1.33834
   437    C   22  py     Ryd( 3p)     0.00024       1.13249
   438    C   22  pz     Val( 2p)     0.62568      -0.11304
   439    C   22  pz     Ryd( 4p)     0.01032       1.27960
   440    C   22  pz     Ryd( 3p)     0.00031       1.05140
   441    C   22  dxy    Ryd( 4d)     0.00203       3.11065
   442    C   22  dxy    Ryd( 3d)     0.00026       2.97371
   443    C   22  dxz    Ryd( 3d)     0.00252       2.85198
   444    C   22  dxz    Ryd( 4d)     0.00023       2.85261
   445    C   22  dyz    Ryd( 4d)     0.00367       3.27794
   446    C   22  dyz    Ryd( 3d)     0.00036       2.79145
   447    C   22  dx2y2  Ryd( 4d)     0.00182       3.62770
   448    C   22  dx2y2  Ryd( 3d)     0.00031       2.65862
   449    C   22  dz2    Ryd( 4d)     0.00307       3.36815
   450    C   22  dz2    Ryd( 3d)     0.00034       2.75076
   451    C   22  f(0)   Ryd( 4f)     0.00047       3.59505
   452    C   22  f(C1)  Ryd( 4f)     0.00007       3.59474
   453    C   22  f(S1)  Ryd( 4f)     0.00015       3.69513
   454    C   22  f(C2)  Ryd( 4f)     0.00045       3.59499
   455    C   22  f(S2)  Ryd( 4f)     0.00009       3.58483
   456    C   22  f(C3)  Ryd( 4f)     0.00006       3.61579
[...]
 78,-0.00757613,-0.02334608,-0.12860660,0.01850161,0.02475579,0.6880606
 4,0.00015752,0.00295793,0.00591628,0.00172123,0.00001057,-0.00024580,-
 0.00037591,0.00076414,0.00018036,-0.00022590,-0.00051010,-0.00020270,0
 .00063127,0.00021851,-0.00001632,-0.00104382,-0.00019374,0.00016952,-0
 .00002265,-0.00002540,0.00003732,0.00009122,-0.00001566,0.00000434,0.0
 0001426,-0.00000177,-0.00002800,-0.00001462,0.00000003,0.00002179,-0.0
 0007893,0.00016938,-0.00012227,-0.02044094,0.05105407,-0.07860866,0.00
 332049,0.01549825,0.00708812,-0.00495930,0.00117897,-0.00695656,0.0098
 4813,-0.00340374,0.00696087,0.03087099,0.01213530,-0.06972357,-0.05700
 949,-0.14252564,0.18333258,0.00010921,0.00133669,-0.00019543,-0.000031
 50,0.00003101,0.00007189,-0.00000999,-0.00004428,0.00000847,-0.0000336
 1,0.00000436,-0.00000472,-0.00000654,0.00006708,0.00010152,-0.00041054
 ,-0.00009488,-0.00004571,-0.00001150,-0.00000521,-0.00004973,-0.000024
 41,-0.00000192,-0.00000402,-0.00000389,-0.00000068,-0.00000615,-0.0000
 4225,0.00000478,0.00000542,0.00001227,0.00001742,-0.00001398,0.0122496
 5,-0.01379628,0.00294572,-0.11997329,0.11601331,-0.02256445,-0.0086290
 0,0.02757487,-0.00612281,-0.00527980,-0.00036694,0.00108731,-0.0010407
 2,-0.00078793,0.00022838,-0.00154080,-0.00330753,0.00147617,0.12495906
 ,-0.00010795,0.00003150,-0.00003234,0.00002339,-0.00003665,-0.00001271
 ,-0.00000539,0.00000314,0.00000577,0.00000903,-0.00000608,-0.00000503,
 0.00000173,-0.00000985,0.00000749,-0.00001681,0.00004578,0.00002269,-0
 .00001739,0.00000590,-0.00000959,0.00000266,0.00000144,-0.00000004,0.0
 0000120,0.00000007,-0.00000125,0.00000338,0.00000011,0.00000006,-0.000
 00728,-0.00000618,-0.00000454,0.01289030,-0.01710306,0.00433257,0.1146
 5899,-0.27640440,0.05055785,-0.00129260,0.00339171,0.00016703,-0.00039
 327,0.00203485,0.00139800,-0.00066986,0.00036212,-0.00021286,-0.003785
 25,-0.00200859,0.00240474,-0.12439397,0.29024700,0.00004263,-0.0001705
 5,-0.00001711,-0.00007499,-0.00001405,-0.00008632,-0.00000697,0.000000
 88,0.00003836,0.00000219,0.00000255,0.00000200,-0.00002849,-0.00005169
 ,0.00000579,-0.00001435,0.00008390,-0.00006375,-0.00007153,0.00003531,
 0.00000708,-0.00000313,-0.00000088,0.00000240,-0.00000073,0.00000507,-
 0.00001072,0.00000594,-0.00000254,0.00000823,-0.00002378,-0.00001435,-
 0.00002832,-0.00381788,0.00610558,0.00329377,-0.02180888,0.05020958,-0
 .05015615,0.00123890,-0.00186931,0.00419413,0.00128244,0.00133296,0.00
 728358,0.00041102,-0.00020081,-0.00073223,0.00129013,0.00260735,0.0055
 0824,0.02318638,-0.05602146,0.03910358,0.00047637,0.00010831,-0.000379
 82,-0.00062979,0.00038345,-0.00029055,-0.00018052,0.00000132,0.0000903
 6,-0.00001631,-0.00009865,0.00000528,0.00005297,-0.00005889,-0.0000356
 9,0.00015807,-0.00002590,-0.00002184,-0.00109961,0.00038768,-0.0008704
 8,-0.00000066,0.00003551,-0.00006542,0.00001364,-0.00001460,-0.0000101
 5,0.00001862,-0.00001552,0.00001496,0.00001306,-0.00002696,-0.00006110
 ,-0.00550833,0.00157351,0.00058472,-0.01199958,-0.02625862,0.00824829,
 -0.13704315,-0.12072241,0.04256998,0.01094149,0.01149384,-0.00376145,-
 0.00082876,0.00323798,-0.00025062,-0.00061652,0.00086347,-0.00021233,0
 .00101531,0.00016253,-0.00052673,0.14506604,-0.00216996,0.00047770,-0.
 00094236,-0.00029334,0.00002597,-0.00041264,0.00052901,0.00015226,-0.0
 0018368,-0.00001306,0.00039948,0.00025226,-0.00048198,-0.00017725,-0.0
 0002159,0.00071755,-0.00034305,-0.00032972,-0.00003125,0.00043809,0.00
 041265,0.00000302,-0.00000515,-0.00002459,-0.00001566,0.00002197,0.000
 05536,0.00001470,-0.00000735,0.00001966,-0.00002279,0.00006500,0.00006
 046,0.00126791,0.00227237,0.00133203,0.00291698,0.00553625,-0.00096715
 ,-0.12005441,-0.24280537,0.06650435,-0.01559618,-0.01759342,0.00712329
 ,0.00362274,-0.00312639,0.00214349,0.00112998,-0.00015278,-0.00028017,
 -0.00047053,0.00035873,-0.00118569,0.12969212,0.25523331,-0.00120923,-
 0.00116307,-0.00329991,-0.00062734,0.00101325,0.00034368,0.00037450,-0
 .00050228,-0.00032178,0.00004132,0.00034463,0.00013670,-0.00032301,-0.
 00036825,-0.00003175,0.00071852,-0.00043233,-0.00000670,-0.00092900,-0
 .00015240,-0.00041520,-0.00004114,0.00001177,0.00001100,0.00002704,-0.
 00003984,0.00000720,0.00001717,0.00000241,-0.00002566,0.00004329,-0.00
 002598,-0.00007741,0.00078950,0.00160255,0.00690544,0.00006407,0.00135
 982,0.00290277,0.04238522,0.06761683,-0.06040325,0.00472540,0.00387336
 ,0.00269279,-0.00055478,0.00199033,0.00601756,0.00004856,-0.00037757,-
 0.00082519,-0.00035758,-0.00111757,-0.00382954,-0.04521816,-0.07369141
 ,0.05070364,0.00083177,-0.00031694,-0.00031876,-0.00003902,-0.00006768
 ,-0.00001813,0.00015077,-0.00003251,0.00000822,0.00001016,0.00019008,0
 .00004221,-0.00031208,-0.00001250,-0.00010838,-0.00047853,-0.00017264,
 0.00035205,0.00002147,0.00002895,0.00005457,0.00001338,0.00001268,-0.0
 0001690,0.00001535,0.00001012,0.00001544,0.00000908,-0.00003467,0.0000
 6181,-0.00084881,-0.00023273,0.00097243,-0.00559319,-0.00046832,0.0011
 9750,-0.00085578,-0.00082237,0.00020535,-0.00139325,-0.00313594,0.0015
 1687,0.01088804,-0.01429309,0.00335716,-0.11768806,0.11335350,-0.02529
 357,-0.00975631,0.02804695,-0.00635298,0.00002486,0.00006337,-0.000107
 46,0.00054150,-0.00085989,0.00020941,0.12370005,0.00197357,0.00025302,
 -0.00120637,-0.00079639,-0.00024562,-0.00022615,0.00043476,-0.00023490
 ,-0.00008865,0.00009685,0.00037440,0.00024218,-0.00049534,0.00021786,-
 0.00010027,0.00029919,0.00002328,-0.00049518,0.00003626,0.00005775,0.0
 0004928,-0.00001434,-0.00000735,0.00002364,0.00002376,0.00001789,0.000
 05100,-0.00000789,-0.00000030,-0.00003159,0.00025689,0.00045777,0.0002
 7719,-0.00002473,0.00240853,0.00146583,-0.00105942,0.00010435,-0.00008
 662,-0.00349023,-0.00230341,0.00248609,0.01287252,-0.01764030,0.004727
 58,0.11256438,-0.27127354,0.05477216,-0.00107854,0.00248979,0.00026269
 ,0.00006632,-0.00007783,-0.00024869,0.00070424,-0.00095277,0.00016246,
 -0.12237242,0.28587821,0.00046248,-0.00120806,-0.00327961,-0.00072912,
 -0.00032732,0.00009272,0.00023761,-0.00039070,-0.00007550,0.00002026,0
 .00030943,0.00012763,-0.00041888,-0.00044192,-0.00024462,0.00084390,0.
 00095044,0.00019808,-0.00005860,-0.00002569,-0.00007578,-0.00002078,0.
 00000296,-0.00002026,-0.00003252,-0.00003798,0.00000889,0.00004244,0.0
 0001099,-0.00000326,0.00096508,-0.00022048,-0.00068398,0.00142712,0.00
 167912,0.00711655,-0.00002087,-0.00024501,-0.00066904,0.00176392,0.002
 26796,0.00548043,-0.00527619,0.00621454,0.00284545,-0.02508505,0.05583
 637,-0.05159777,0.00191508,-0.00234300,0.00394476,-0.00010266,-0.00024
 528,-0.00096520,-0.00024451,0.00031000,0.00010464,0.02483577,-0.060823
 26,0.04142299,-0.00000953,-0.00137602,0.00020970,-0.00038435,0.0001625
 5,0.00009499,-0.00002477,-0.00007206,-0.00010212,-0.00003745,0.0000010
 1,0.00000996,-0.00000376,0.00004295,-0.00000367,-0.00004055,-0.0000316
 9,-0.00008033,0.00001636,-0.00002286,0.00000883,-0.00004507,-0.0000003
 3,0.00000187,-0.00000406,0.00000146,0.00000550,-0.00002397,0.00000567,
 0.00000770,0.00001218,0.00000707,0.00004627,0.01210677,0.01165477,-0.0
 0356052,-0.00082551,0.00338818,-0.00013989,-0.00086975,0.00088859,-0.0
 0020974,-0.00518965,0.00160643,0.00092810,-0.01093002,-0.02623339,0.00
 818838,-0.14130241,-0.12208644,0.04066837,0.00053713,0.00073423,-0.000
 19221,0.00002398,-0.00012228,-0.00008260,0.00102997,0.00018827,-0.0005
 4409,0.14625463,0.00010895,0.00016370,-0.00007713,0.00006333,0.0000313
 1,0.00000851,0.00000084,-0.00000385,0.00002013,-0.00000800,-0.00000492
 ,-0.00000452,0.00000712,-0.00000329,0.00000595,-0.00002556,-0.00003288
 ,-0.00000148,0.00000462,-0.00000442,-0.00000747,0.00000073,0.00000021,
 0.00000047,-0.00000138,0.00000030,-0.00000216,-0.00000043,0.00000162,-
 0.00000055,0.00001808,0.00000317,-0.00001924,-0.01603725,-0.01678670,0
 .00696973,0.00407087,-0.00290984,0.00205616,0.00075681,0.00020541,-0.0
 0032649,0.00141530,0.00184847,0.00143190,0.00300034,0.00627466,-0.0008
 3072,-0.12160850,-0.24353655,0.06409787,-0.00088417,-0.00080553,0.0003
 6775,-0.00010999,-0.00006291,-0.00025394,-0.00039850,0.00032507,-0.001
 18498,0.13077442,0.25541253,-0.00007046,0.00001633,-0.00004863,0.00006
 854,0.00006339,-0.00007804,0.00002475,-0.00004772,0.00001557,0.0000054
 3,0.00000124,0.00000047,0.00001386,-0.00000543,0.00003890,0.00006873,-
 0.00002149,-0.00008596,0.00001376,-0.00001556,-0.00003345,0.00000134,-
 0.00000164,0.00000895,0.00000076,0.00000497,-0.00001185,0.00000718,-0.
 00000221,0.00000052,0.00007716,0.00002717,-0.00001101,0.00359295,0.003
 84728,0.00306061,-0.00003866,0.00199649,0.00573080,-0.00034358,-0.0002
 5305,-0.00066375,0.00060747,0.00136166,0.00743664,0.00060779,0.0018641
 7,0.00349937,0.04055073,0.06513771,-0.05983598,0.00018583,0.00023341,0
 .00035679,-0.00005909,-0.00024280,-0.00098629,-0.00032578,-0.00129706,
 -0.00395776,-0.04496915,-0.07162633,0.04912338,-0.00115813,0.00006596,
 -0.00004396,0.00085867,-0.00081381,0.00001575,0.00008569,-0.00016902,-
 0.00038007,0.00075878,-0.00002481,-0.00004261,0.00010734,0.00012431,0.
 00036312,0.00102475,0.00070694,-0.00016159,-0.00023499,-0.00018870,-0.
 00005204,0.00022754,0.00010227,0.00001351,0.00012957,-0.00000752,-0.00
 000877,0.00021450,-0.00013113,-0.00004412,-0.00019990,0.00021568,0.000
 08856,-0.21693216,0.00384174,0.00725520,-0.01813878,-0.00907124,0.0039
 1972,0.00387137,-0.00215935,0.00082954,-0.00096879,-0.00061700,0.00026
 032,0.00542950,0.00207178,-0.00027820,-0.01666920,0.01245410,-0.001633
 58,0.00109637,0.00204928,-0.00095245,0.00080559,0.00035282,-0.00021516
 ,0.00087431,-0.00044329,0.00003984,0.00076533,-0.00211106,0.00021932,0
 .62975586,0.00008998,-0.00038674,-0.00016954,-0.00024434,0.00003982,-0
 .00000590,0.00009863,-0.00007565,-0.00000693,-0.00000558,0.00007215,0.
 00005976,-0.00008490,-0.00006637,-0.00000634,0.00019850,0.00004539,-0.
 00004267,0.00000671,0.00003280,-0.00000572,-0.00002505,0.00000155,-0.0
 0001362,-0.00000170,0.00000925,-0.00001144,0.00002026,0.00000025,-0.00
 001440,-0.00000152,0.00002200,0.00000454,0.00756818,-0.09447822,0.0058
 4596,-0.02256744,0.01146883,-0.00222684,-0.00524505,-0.00498077,0.0033
 3553,-0.00028020,-0.00428168,0.00094461,0.00594237,-0.00505789,0.00239
 350,0.02741504,0.00695725,-0.00283910,-0.00202721,-0.00291042,0.000333
 90,-0.00140454,0.00035839,0.00029829,0.00142587,0.00006455,-0.00009778
 ,0.00129580,-0.00261139,-0.00005505,-0.01243864,0.56265238,0.00005168,
 0.00002876,-0.00081769,-0.00029284,0.00008012,0.00000313,0.00018450,-0
 .00013262,-0.00009518,-0.00002342,0.00020069,0.00007654,-0.00021353,-0
 .00012474,-0.00011536,0.00021145,0.00003199,-0.00001800,-0.00000640,-0
 .00008637,0.00005456,-0.00002286,-0.00001413,0.00000862,-0.00000542,-0
 .00001974,0.00003108,0.00000763,-0.00000511,0.00001192,0.00002521,-0.0
 0011422,0.00006272,0.00934988,0.00606669,-0.07208726,0.00774449,-0.001
 19421,0.00175091,0.00216322,0.00264551,0.00605098,0.00010588,0.0011087
 6,-0.00093305,-0.00093598,0.00281541,0.00554538,-0.00481763,-0.0038403
 5,-0.00012502,-0.00010162,-0.00047273,-0.00288037,0.00038753,0.0000488
 1,0.00026744,-0.00036537,0.00017715,0.00061915,-0.00085610,0.00070036,
 -0.00187432,-0.00964365,-0.00980813,0.51965753,0.00042363,0.00000340,0
 .00004813,-0.00024400,0.00018312,-0.00003062,-0.00004378,0.00006696,0.
 00011797,-0.00021021,-0.00002187,-0.00000270,0.00000718,-0.00001001,-0
 .00007446,-0.00033003,-0.00014908,0.00002592,0.00007515,0.00008117,0.0
 0003375,-0.00006317,-0.00003085,0.00000049,-0.00003892,0.00000537,0.00
 000055,-0.00006054,0.00003435,0.00001934,0.00005458,-0.00005113,-0.000
 02065,-0.01887859,-0.02387943,0.03859490,-0.00354181,0.00535180,0.0010
 8303,-0.00210041,-0.00104324,-0.00137481,0.00014317,-0.00089780,0.0003
 8577,0.00023867,-0.00062611,-0.00053543,-0.00035321,-0.00148977,0.0005
 0682,0.00024028,-0.00001548,0.00066731,-0.00066233,-0.00005072,-0.0001
 7257,-0.00011932,0.00013767,0.00005456,-0.00110913,0.00048161,0.000664
 70,-0.12498495,-0.03508249,0.07217300,0.11513371,0.00006059,0.00017400
 ,0.00007997,-0.00000332,0.00007461,-0.00002713,-0.00002643,0.00004327,
 0.00005146,-0.00007070,-0.00001332,-0.00000799,0.00000239,0.00001259,-
 0.00003613,-0.00013922,-0.00008774,-0.00000254,0.00002268,0.00001497,0
 .00001373,-0.00001341,-0.00001138,0.00000525,-0.00000966,-0.00000032,0
 .00000393,-0.00002315,0.00000931,0.00001104,0.00001438,-0.00001568,0.0
 0001535,-0.00670228,0.00332512,0.01175048,-0.00034554,0.00077283,0.000
 26335,-0.00014942,0.00039176,-0.00076182,0.00028010,0.00025082,0.00004
 796,-0.00099901,0.00048383,-0.00097168,0.00078051,-0.00268921,-0.00014
 873,0.00057997,0.00046415,0.00014429,-0.00011190,-0.00003495,-0.000018
 97,-0.00017178,0.00002522,0.00001409,0.00010951,0.00156255,0.00020748,
 -0.03852778,-0.11145221,0.06961160,0.04957389,0.14935137,-0.00018703,-
 0.00012896,-0.00002093,0.00010098,-0.00010165,0.00003450,0.00001403,-0
 .00003806,-0.00003418,0.00010368,-0.00000008,0.00000278,0.00000965,0.0
 0000606,0.00005451,0.00016346,0.00006092,-0.00000536,-0.00003714,-0.00
 001619,-0.00004817,0.00003108,0.00002002,-0.00000832,0.00001914,0.0000
 0310,-0.00000968,0.00002760,-0.00001249,-0.00001797,-0.00003159,0.0000
 4536,-0.00001428,0.01248193,0.01424497,-0.01232017,0.00365755,-0.00256
 908,-0.00039187,0.00023040,0.00101877,0.00023285,-0.00025989,-0.000395
 14,-0.00005117,0.00095301,-0.00011469,0.00054059,-0.00120889,0.0025973
 6,0.00085866,-0.00040552,-0.00029843,-0.00018838,0.00042891,-0.0000111
 7,0.00002921,0.00018210,-0.00007833,-0.00009660,0.00037469,-0.00119191
 ,-0.00077329,0.07607049,0.06650382,-0.20074174,-0.09162444,-0.12490849
 ,0.31083730,0.00034860,-0.00006612,0.00000625,-0.00021123,0.00017275,0
 .00001533,-0.00003712,0.00003797,0.00006980,-0.00017981,-0.00001749,-0
 .00000301,0.00001793,-0.00004329,-0.00005547,-0.00026638,-0.00010392,0
 .00006982,0.00006238,0.00004321,0.00002073,-0.00005984,-0.00002438,-0.
 00000678,-0.00003633,0.00000106,-0.00000140,-0.00004821,0.00003190,0.0
 0001108,0.00005683,-0.00006392,-0.00006373,-0.01587110,0.04638094,-0.0
 0008313,-0.00087066,0.00093100,0.00001412,0.00018098,0.00071673,-0.000
 35404,0.00016738,0.00046585,-0.00007737,-0.00124278,0.00203748,-0.0010
 4047,-0.00695685,-0.00409592,0.00258074,-0.00312470,0.00065864,0.00046
 112,-0.00010739,-0.00008048,0.00007854,-0.00079266,-0.00000542,-0.0000
 4124,0.00029032,0.00016594,0.00010080,-0.12817033,0.07983046,0.0034221
 6,0.01757129,-0.00831806,-0.00189148,0.12093127,-0.00018204,0.00030817
 ,-0.00006789,0.00017354,-0.00015728,-0.00003477,0.00002935,0.00000318,
 -0.00004814,0.00010925,0.00001481,-0.00000360,-0.00000926,0.00005100,0
 .00006001,0.00008363,0.00004443,-0.00005883,-0.00002306,-0.00002502,0.
 00001678,0.00004555,0.00001253,0.00000775,0.00001938,-0.00000103,0.000
 00670,0.00001663,-0.00001739,-0.00000062,-0.00003186,0.00004273,0.0000
 4348,0.01173208,-0.02172906,0.00032069,-0.00351076,-0.00393733,0.00201
 625,0.00113090,0.00126867,-0.00007871,-0.00043478,0.00044619,-0.000190
 93,-0.00026057,-0.00086701,0.00051138,0.00461525,0.00228700,-0.0012624
 2,0.00010229,0.00230246,-0.00092390,0.00025123,-0.00000734,-0.00006127
 ,0.00047865,0.00000014,-0.00003825,-0.00053340,0.00059288,-0.00017444,
 0.09010136,-0.24420296,-0.00398736,0.00251202,-0.05986926,0.04004833,-
 0.10504900,0.38547876,-0.00005346,-0.00006018,0.00000161,0.00002496,0.
 00001128,0.00000711,-0.00001961,0.00001144,0.00001808,-0.00000335,-0.0
 0001719,-0.00000664,0.00001648,0.00000404,0.00000436,0.00000429,-0.000
 02571,0.00000437,-0.00000174,0.00000574,-0.00001500,0.00000226,0.00000
 181,-0.00000190,0.00000147,0.00000216,-0.00000343,-0.00000051,0.000001
 77,-0.00000251,-0.00000065,0.00001605,-0.00000482,0.00064383,-0.001509
 71,0.00950211,0.00026048,0.00039831,-0.00018948,0.00004660,-0.00034775
 ,0.00008129,0.00009157,0.00018784,-0.00001124,-0.00025032,-0.00059933,
 -0.00034634,0.00101516,0.00050645,0.00137518,0.00052815,-0.00057653,-0
 .00025193,-0.00001529,0.00000604,0.00000791,0.00004974,-0.00005187,-0.
 00019092,0.00011153,-0.00015680,-0.00006191,0.00291173,-0.00220999,-0.
 07446539,-0.00809910,0.05160585,-0.00832197,-0.00194090,0.00337188,0.0
 8120040,0.00032882,0.00001163,-0.00022202,-0.00036417,0.00026543,-0.00
 001393,0.00005128,0.00002307,0.00011061,-0.00025038,0.00008348,0.00005
 345,-0.00011833,-0.00006753,-0.00012571,-0.00026802,-0.00028785,0.0000
 3005,0.00008162,0.00005775,0.00002243,-0.00007332,-0.00003216,-0.00001
 027,-0.00004226,0.00000408,0.00000549,-0.00007583,0.00004647,0.0000098
 1,0.00006383,-0.00006408,-0.00002756,-0.02600143,-0.02336354,-0.035303
 73,-0.00117086,0.00374345,-0.00241122,-0.00172711,0.00099090,0.0022465
 6,0.00021309,-0.00074550,-0.00014992,-0.00036843,-0.00014152,0.0016861
 4,0.00000639,-0.00269162,0.00048323,-0.00008159,-0.00055349,-0.0009584
 6,-0.00043369,0.00001571,0.00020803,-0.00023370,0.00013333,-0.00003352
 ,-0.00023667,0.00031588,-0.00100436,-0.13854794,-0.04448313,-0.0785418
 1,0.01885273,0.00418763,0.00079727,0.01834840,-0.00136639,0.00467670,0
 .13204758,0.00004752,0.00006447,-0.00010871,-0.00006738,0.00006363,-0.
 00000501,0.00000482,0.00001563,0.00003374,-0.00006341,0.00002132,0.000
 00885,-0.00003423,-0.00000425,-0.00003465,-0.00010114,-0.00011019,0.00
 001306,0.00001958,0.00001500,0.00000826,-0.00001443,-0.00000742,-0.000
 00128,-0.00001033,0.00000004,0.00000479,-0.00002725,0.00001353,0.00000
 325,0.00001497,-0.00002002,-0.00000556,-0.00816669,0.00548565,-0.01066
 297,-0.00016112,0.00001790,0.00063469,0.00056882,0.00044545,0.00039108
 ,0.00018387,0.00091854,-0.00039342,-0.00166893,0.00038473,0.00100660,-
 0.00010601,-0.00191918,0.00045403,0.00038343,0.00011964,-0.00052521,-0
 .00004724,-0.00007077,-0.00007080,-0.00021820,0.00003817,0.00003380,-0
 .00038244,0.00034042,-0.00101852,-0.04538287,-0.11122032,-0.06371613,0
 .00491661,0.01721768,0.00531596,-0.01360595,-0.06203927,-0.05057557,0.
 06391800,0.15022961,0.00008319,0.00002663,-0.00007192,-0.00011462,0.00
 007880,-0.00000844,0.00001545,0.00002382,0.00004945,-0.00009081,0.0000
 2805,0.00002186,-0.00004499,-0.00001517,-0.00002118,-0.00012247,-0.000
 15154,0.00001813,0.00003783,0.00003878,0.00000618,-0.00002281,-0.00000
 862,-0.00000879,-0.00001652,0.00000598,-0.00000186,-0.00003702,0.00002
 240,-0.00000201,0.00002051,-0.00000303,-0.00003634,-0.01279383,-0.0113
 8982,-0.00535227,-0.00194168,0.00176680,-0.00101237,-0.00096468,-0.000
 10550,0.00086940,0.00018564,-0.00032535,-0.00016423,-0.00040349,0.0001
 5873,0.00056958,0.00022777,-0.00070669,0.00129204,0.00014914,-0.000119
 24,-0.00059393,-0.00030680,0.00002455,0.00009269,-0.00015328,0.0000367
 8,-0.00010095,0.00008454,0.00002490,-0.00084975,-0.07853089,-0.0622064
 7,-0.17998660,-0.01244145,-0.00694236,-0.08954631,-0.00129148,-0.03947
 214,-0.00832895,0.10847275,0.11920972,0.28316655\\-0.00003475,-0.00000
 581,-0.00000043,-0.00001491,-0.00000879,-0.00000384,0.00001225,0.00002
 031,0.00001459,0.00000838,-0.00000023,-0.00000098,0.00000509,-0.000021
 58,-0.00001520,-0.00000590,0.00001250,0.00000812,0.00000706,0.00000636
 ,0.00000324,-0.00000086,0.00000026,-0.00000469,0.00000063,-0.00000010,
 0.00000008,0.00000111,0.00000098,0.00000414,0.00000516,-0.00000671,-0.
 00000433,-0.00002187,0.00001120,0.00001566,-0.00000863,-0.00000507,-0.
 00000594,0.00003238,-0.00000961,0.00000190,0.00003429,0.00002662,-0.00
 000748,-0.00000119,-0.00001782,0.00001287,0.00005156,-0.00004152,0.000
 01484,-0.00000592,0.00000471,-0.00000338,-0.00000508,0.00000392,-0.000
 00547,0.00000219,-0.00000314,-0.00000459,-0.00000775,0.00000772,-0.000
 00994,-0.00009577,0.00007899,-0.00002079,0.00000933,-0.00002432,0.0000
 1260,0.00002478,-0.00001192,-0.00000013,0.00000842,-0.00001693,-0.0000
 0086\\\@
 The archive entry for this job was punched.


 THOSE WITH THE GOLD MAKE THE RULES.

             -- PETER'S GOLDEN RULE
 Job cpu time:       0 days 23 hours  4 minutes 30.0 seconds.
 Elapsed time:       0 days  0 hours 44 minutes  0.7 seconds.
 File lengths (MBytes):  RWF=    609 Int=      0 D2E=      0 Chk=     25 Scr=      1
 Normal termination of Gaussian 16 at Wed Nov  1 01:28:49 2023.
