 Entering Gaussian System, Link 0=g16
 Input=ph4sf5_2_1_m062x.com
 Output=ph4sf5_2_1_m062x.log
 Initial command:
 /arc/software/Gaussian/g16.c01/l1.exe "/tmp/Gau-94748.inp" -scrdir="/tmp/"
 Entering Link 1 = /arc/software/Gaussian/g16.c01/l1.exe PID=     94749.
  
 Copyright (c) 1988-2019, Gaussian, Inc.  All Rights Reserved.
  
 This is part of the Gaussian(R) 16 program.  It is based on
 the Gaussian(R) 09 system (copyright 2009, Gaussian, Inc.),
 the Gaussian(R) 03 system (copyright 2003, Gaussian, Inc.),
 the Gaussian(R) 98 system (copyright 1998, Gaussian, Inc.),
 the Gaussian(R) 94 system (copyright 1995, Gaussian, Inc.),
 the Gaussian 92(TM) system (copyright 1992, Gaussian, Inc.),
 the Gaussian 90(TM) system (copyright 1990, Gaussian, Inc.),
 the Gaussian 88(TM) system (copyright 1988, Gaussian, Inc.),
 the Gaussian 86(TM) system (copyright 1986, Carnegie Mellon
 University), and the Gaussian 82(TM) system (copyright 1983,
 Carnegie Mellon University). Gaussian is a federally registered
 trademark of Gaussian, Inc.
  
 This software contains proprietary and confidential information,
 including trade secrets, belonging to Gaussian, Inc.
  
 This software is provided under written license and may be
 used, copied, transmitted, or stored only in accord with that
 written license.
  
 The following legend is applicable only to US Government
 contracts under FAR:
  
                    RESTRICTED RIGHTS LEGEND
  
 Use, reproduction and disclosure by the US Government is
 subject to restrictions as set forth in subparagraphs (a)
 and (c) of the Commercial Computer Software - Restricted
 Rights clause in FAR 52.227-19.
  
 Gaussian, Inc.
 340 Quinnipiac St., Bldg. 40, Wallingford CT 06492
  
  
 ---------------------------------------------------------------
 Warning -- This program may not be used in any manner that
 competes with the business of Gaussian, Inc. or will provide
 assistance to any competitor of Gaussian, Inc.  The licensee
 of this program is prohibited from giving any competitor of
 Gaussian, Inc. access to this program.  By using this program,
 the user acknowledges that Gaussian, Inc. is engaged in the
 business of creating and licensing software in the field of
 computational chemistry and represents and warrants to the
 licensee that it is not a competitor of Gaussian, Inc. and that
 it will not use this program in any manner prohibited above.
 ---------------------------------------------------------------
  

 Cite this work as:
 Gaussian 16, Revision C.01,
 M. J. Frisch, G. W. Trucks, H. B. Schlegel, G. E. Scuseria, 
 M. A. Robb, J. R. Cheeseman, G. Scalmani, V. Barone, 
 G. A. Petersson, H. Nakatsuji, X. Li, M. Caricato, A. V. Marenich, 
 J. Bloino, B. G. Janesko, R. Gomperts, B. Mennucci, H. P. Hratchian, 
 J. V. Ortiz, A. F. Izmaylov, J. L. Sonnenberg, D. Williams-Young, 
 F. Ding, F. Lipparini, F. Egidi, J. Goings, B. Peng, A. Petrone, 
 T. Henderson, D. Ranasinghe, V. G. Zakrzewski, J. Gao, N. Rega, 
 G. Zheng, W. Liang, M. Hada, M. Ehara, K. Toyota, R. Fukuda, 
 J. Hasegawa, M. Ishida, T. Nakajima, Y. Honda, O. Kitao, H. Nakai, 
 T. Vreven, K. Throssell, J. A. Montgomery, Jr., J. E. Peralta, 
 F. Ogliaro, M. J. Bearpark, J. J. Heyd, E. N. Brothers, K. N. Kudin, 
 V. N. Staroverov, T. A. Keith, R. Kobayashi, J. Normand, 
 K. Raghavachari, A. P. Rendell, J. C. Burant, S. S. Iyengar, 
 J. Tomasi, M. Cossi, J. M. Millam, M. Klene, C. Adamo, R. Cammi, 
 J. W. Ochterski, R. L. Martin, K. Morokuma, O. Farkas, 
 J. B. Foresman, and D. J. Fox, Gaussian, Inc., Wallingford CT, 2019.
 
 ******************************************
 Gaussian 16:  ES64L-G16RevC.01  3-Jul-2019
                31-Oct-2023 
 ******************************************
 %nprocshared=32
 Will use up to   32 processors via shared memory.
 %mem=8000MB
 %chk=ph4sf5_2_1_m062x.chk
 -----------------------------------------
 # opt freq=noraman m062x def2tzvp pop=nbo
 -----------------------------------------
 1/18=20,19=15,26=3,38=1/1,3;
 2/9=110,12=2,17=6,18=5,40=1/2;
 3/5=44,7=101,11=2,25=1,30=1,71=1,74=-55/1,2,3;
 4//1;
 5/5=2,38=5/2;
 6/7=2,8=2,9=2,10=2,28=1,40=1/1,7;
 7//1,2,3,16;
 1/18=20,19=15,26=3/3(2);
 2/9=110/2;
 99//99;
 2/9=110/2;
 3/5=44,7=101,11=2,25=1,30=1,71=1,74=-55/1,2,3;
 4/5=5,16=3,69=1/1;
 5/5=2,38=5/2;
 7//1,2,3,16;
 1/18=20,19=15,26=3/3(-5);
 2/9=110/2;
 6/7=2,8=2,9=2,10=2,19=2,28=1,40=1/1,7;
 99/9=1/99;
 ------------
 Structure697
 ------------
 Symbolic Z-matrix:
 Charge =  0 Multiplicity = 1
 C                    -2.3411    0.0024    0.6162 
 C                    -2.0853    0.3286   -0.7231 
 C                    -0.7804    0.3798   -1.2068 
 C                     0.2829    0.1056   -0.3515 
 C                     0.0504   -0.2197    0.9817 
 C                    -1.2562   -0.2714    1.4611 
 H                    -0.5942    0.6276   -2.2422 
 H                     0.8802   -0.4283    1.6418 
 H                    -2.9001    0.53     -1.4035 
 H                    -1.4186   -0.5124    2.5015 
 C                    -6.3758   -0.1608    2.096 
 C                    -5.4349   -1.1013    2.5208 
 C                    -4.1287   -1.0451    2.0401 
 C                    -3.7405   -0.0526    1.1316 
 C                    -4.6921    0.8866    0.7153 
 C                    -5.9993    0.8375    1.1931 
 H                    -3.4186   -1.7926    2.3635 
 H                    -4.4171    1.6711    0.0252 
 F                    -8.7735    0.5065    1.4812 
 F                    -8.1387   -1.841     2.8389 
 F                    -9.5589   -0.2871    3.3424 
 S                    -8.0617   -0.2271    2.7368 
 F                    -7.8427    1.2069    3.4533 
 F                    -8.3966   -1.086     1.4077 
 H                     1.2963    0.1453   -0.7255 
 H                    -5.717    -1.8829    3.2128 
 H                    -6.7191    1.5747    0.8642 
 

 GradGradGradGradGradGradGradGradGradGradGradGradGradGradGradGradGradGrad
 Berny optimization.
 Initialization pass.
                           ----------------------------
                           !    Initial Parameters    !
                           ! (Angstroms and Degrees)  !
 --------------------------                            --------------------------
 ! Name  Definition              Value          Derivative Info.                !
 --------------------------------------------------------------------------------
 ! R1    R(1,2)                  1.402          estimate D2E/DX2                !
 ! R2    R(1,6)                  1.4021         estimate D2E/DX2                !
 ! R3    R(1,14)                 1.4923         estimate D2E/DX2                !
 ! R4    R(2,3)                  1.3926         estimate D2E/DX2                !
 ! R5    R(2,9)                  1.0805         estimate D2E/DX2                !
 ! R6    R(3,4)                  1.3919         estimate D2E/DX2                !
 ! R7    R(3,7)                  1.0808         estimate D2E/DX2                !
 ! R8    R(4,5)                  1.3919         estimate D2E/DX2                !
 ! R9    R(4,25)                 1.0809         estimate D2E/DX2                !
 ! R10   R(5,6)                  1.3927         estimate D2E/DX2                !
 ! R11   R(5,8)                  1.0807         estimate D2E/DX2                !
 ! R12   R(6,10)                 1.0802         estimate D2E/DX2                !
 ! R13   R(11,12)                1.3965         estimate D2E/DX2                !
 ! R14   R(11,16)                1.3977         estimate D2E/DX2                !
 ! R15   R(11,22)                1.8048         estimate D2E/DX2                !
 ! R16   R(12,13)                1.393          estimate D2E/DX2                !
 ! R17   R(12,26)                1.0814         estimate D2E/DX2                !
 ! R18   R(13,14)                1.4004         estimate D2E/DX2                !
 ! R19   R(13,17)                1.0805         estimate D2E/DX2                !
 ! R20   R(14,15)                1.4003         estimate D2E/DX2                !
 ! R21   R(15,16)                1.3927         estimate D2E/DX2                !
 ! R22   R(15,18)                1.0804         estimate D2E/DX2                !
 ! R23   R(16,27)                1.0816         estimate D2E/DX2                !
 ! R24   R(19,22)                1.6191         estimate D2E/DX2                !
 ! R25   R(20,22)                1.619          estimate D2E/DX2                !
 ! R26   R(21,22)                1.6162         estimate D2E/DX2                !
 ! R27   R(22,23)                1.6179         estimate D2E/DX2                !
 ! R28   R(22,24)                1.6175         estimate D2E/DX2                !
 ! A1    A(2,1,6)              118.6799         estimate D2E/DX2                !
 ! A2    A(2,1,14)             120.6372         estimate D2E/DX2                !
 ! A3    A(6,1,14)             120.6828         estimate D2E/DX2                !
 ! A4    A(1,2,3)              120.752          estimate D2E/DX2                !
 ! A5    A(1,2,9)              120.4874         estimate D2E/DX2                !
 ! A6    A(3,2,9)              118.7537         estimate D2E/DX2                !
 ! A7    A(2,3,4)              119.6791         estimate D2E/DX2                !
 ! A8    A(2,3,7)              120.1724         estimate D2E/DX2                !
 ! A9    A(4,3,7)              120.1481         estimate D2E/DX2                !
 ! A10   A(3,4,5)              120.4658         estimate D2E/DX2                !
 ! A11   A(3,4,25)             119.7589         estimate D2E/DX2                !
 ! A12   A(5,4,25)             119.7753         estimate D2E/DX2                !
 ! A13   A(4,5,6)              119.6759         estimate D2E/DX2                !
 ! A14   A(4,5,8)              120.1281         estimate D2E/DX2                !
 ! A15   A(6,5,8)              120.1958         estimate D2E/DX2                !
 ! A16   A(1,6,5)              120.7472         estimate D2E/DX2                !
 ! A17   A(1,6,10)             120.5058         estimate D2E/DX2                !
 ! A18   A(5,6,10)             118.7408         estimate D2E/DX2                !
 ! A19   A(12,11,16)           119.7372         estimate D2E/DX2                !
 ! A20   A(12,11,22)           119.7765         estimate D2E/DX2                !
 ! A21   A(16,11,22)           120.479          estimate D2E/DX2                !
 ! A22   A(11,12,13)           119.9755         estimate D2E/DX2                !
 ! A23   A(11,12,26)           120.3754         estimate D2E/DX2                !
 ! A24   A(13,12,26)           119.6445         estimate D2E/DX2                !
 ! A25   A(12,13,14)           120.8241         estimate D2E/DX2                !
 ! A26   A(12,13,17)           119.0147         estimate D2E/DX2                !
 ! A27   A(14,13,17)           120.1505         estimate D2E/DX2                !
 ! A28   A(1,14,13)            120.6722         estimate D2E/DX2                !
 ! A29   A(1,14,15)            120.6539         estimate D2E/DX2                !
 ! A30   A(13,14,15)           118.6739         estimate D2E/DX2                !
 ! A31   A(14,15,16)           120.8114         estimate D2E/DX2                !
 ! A32   A(14,15,18)           120.2595         estimate D2E/DX2                !
 ! A33   A(16,15,18)           118.9244         estimate D2E/DX2                !
 ! A34   A(11,16,15)           119.977          estimate D2E/DX2                !
 ! A35   A(11,16,27)           120.2656         estimate D2E/DX2                !
 ! A36   A(15,16,27)           119.7573         estimate D2E/DX2                !
 ! A37   A(11,22,19)            96.816          estimate D2E/DX2                !
 ! A38   A(11,22,20)            95.9373         estimate D2E/DX2                !
 ! A39   A(11,22,23)            89.8989         estimate D2E/DX2                !
 ! A40   A(11,22,24)            85.4786         estimate D2E/DX2                !
 ! A41   A(19,22,20)           118.6648         estimate D2E/DX2                !
 ! A42   A(19,22,21)            84.2689         estimate D2E/DX2                !
 ! A43   A(19,22,23)            90.0774         estimate D2E/DX2                !
 ! A44   A(19,22,24)            60.8132         estimate D2E/DX2                !
 ! A45   A(20,22,21)            83.99           estimate D2E/DX2                !
 ! A46   A(20,22,23)           149.5486         estimate D2E/DX2                !
 ! A47   A(20,22,24)            60.8324         estimate D2E/DX2                !
 ! A48   A(21,22,23)            89.5621         estimate D2E/DX2                !
 ! A49   A(21,22,24)            95.5308         estimate D2E/DX2                !
 ! A50   A(23,22,24)           149.6035         estimate D2E/DX2                !
 ! A51   L(11,22,21,19,-1)     181.0849         estimate D2E/DX2                !
 ! A52   L(11,22,21,19,-2)     180.5405         estimate D2E/DX2                !
 ! D1    D(6,1,2,3)              0.0202         estimate D2E/DX2                !
 ! D2    D(6,1,2,9)            179.0542         estimate D2E/DX2                !
 ! D3    D(14,1,2,3)          -179.9595         estimate D2E/DX2                !
 ! D4    D(14,1,2,9)            -0.9255         estimate D2E/DX2                !
 ! D5    D(2,1,6,5)              0.0579         estimate D2E/DX2                !
 ! D6    D(2,1,6,10)           179.143          estimate D2E/DX2                !
 ! D7    D(14,1,6,5)          -179.9625         estimate D2E/DX2                !
 ! D8    D(14,1,6,10)           -0.8773         estimate D2E/DX2                !
 ! D9    D(2,1,14,13)          141.0164         estimate D2E/DX2                !
 ! D10   D(2,1,14,15)          -38.9202         estimate D2E/DX2                !
 ! D11   D(6,1,14,13)          -38.9629         estimate D2E/DX2                !
 ! D12   D(6,1,14,15)          141.1005         estimate D2E/DX2                !
 ! D13   D(1,2,3,4)             -0.069          estimate D2E/DX2                !
 ! D14   D(1,2,3,7)            179.7023         estimate D2E/DX2                !
 ! D15   D(9,2,3,4)           -179.1194         estimate D2E/DX2                !
 ! D16   D(9,2,3,7)              0.6518         estimate D2E/DX2                !
 ! D17   D(2,3,4,5)              0.0403         estimate D2E/DX2                !
 ! D18   D(2,3,4,25)          -179.9791         estimate D2E/DX2                !
 ! D19   D(7,3,4,5)           -179.731          estimate D2E/DX2                !
 ! D20   D(7,3,4,25)             0.2497         estimate D2E/DX2                !
 ! D21   D(3,4,5,6)              0.0368         estimate D2E/DX2                !
 ! D22   D(3,4,5,8)           -179.7913         estimate D2E/DX2                !
 ! D23   D(25,4,5,6)          -179.9438         estimate D2E/DX2                !
 ! D24   D(25,4,5,8)             0.228          estimate D2E/DX2                !
 ! D25   D(4,5,6,1)             -0.0864         estimate D2E/DX2                !
 ! D26   D(4,5,6,10)          -179.1875         estimate D2E/DX2                !
 ! D27   D(8,5,6,1)            179.7416         estimate D2E/DX2                !
 ! D28   D(8,5,6,10)             0.6405         estimate D2E/DX2                !
 ! D29   D(16,11,12,13)         -0.2728         estimate D2E/DX2                !
 ! D30   D(16,11,12,26)       -179.4965         estimate D2E/DX2                !
 ! D31   D(22,11,12,13)       -179.2973         estimate D2E/DX2                !
 ! D32   D(22,11,12,26)          1.4791         estimate D2E/DX2                !
 ! D33   D(12,11,16,15)          0.3567         estimate D2E/DX2                !
 ! D34   D(12,11,16,27)       -179.5368         estimate D2E/DX2                !
 ! D35   D(22,11,16,15)        179.3742         estimate D2E/DX2                !
 ! D36   D(22,11,16,27)         -0.5193         estimate D2E/DX2                !
 ! D37   D(12,11,22,19)       -154.5657         estimate D2E/DX2                !
 ! D38   D(12,11,22,20)        -34.6891         estimate D2E/DX2                !
 ! D39   D(12,11,22,23)        115.3684         estimate D2E/DX2                !
 ! D40   D(12,11,22,24)        -94.7057         estimate D2E/DX2                !
 ! D41   D(16,11,22,19)         26.4172         estimate D2E/DX2                !
 ! D42   D(16,11,22,20)        146.2939         estimate D2E/DX2                !
 ! D43   D(16,11,22,23)        -63.6487         estimate D2E/DX2                !
 ! D44   D(16,11,22,24)         86.2772         estimate D2E/DX2                !
 ! D45   D(11,12,13,14)          0.049          estimate D2E/DX2                !
 ! D46   D(11,12,13,17)       -178.7628         estimate D2E/DX2                !
 ! D47   D(26,12,13,14)        179.2783         estimate D2E/DX2                !
 ! D48   D(26,12,13,17)          0.4666         estimate D2E/DX2                !
 ! D49   D(12,13,14,1)        -179.8475         estimate D2E/DX2                !
 ! D50   D(12,13,14,15)          0.0903         estimate D2E/DX2                !
 ! D51   D(17,13,14,1)          -1.0492         estimate D2E/DX2                !
 ! D52   D(17,13,14,15)        178.8886         estimate D2E/DX2                !
 ! D53   D(1,14,15,16)         179.9324         estimate D2E/DX2                !
 ! D54   D(1,14,15,18)          -0.8703         estimate D2E/DX2                !
 ! D55   D(13,14,15,16)         -0.0054         estimate D2E/DX2                !
 ! D56   D(13,14,15,18)        179.1919         estimate D2E/DX2                !
 ! D57   D(14,15,16,11)         -0.2183         estimate D2E/DX2                !
 ! D58   D(14,15,16,27)        179.6758         estimate D2E/DX2                !
 ! D59   D(18,15,16,11)       -179.4261         estimate D2E/DX2                !
 ! D60   D(18,15,16,27)          0.4679         estimate D2E/DX2                !
 --------------------------------------------------------------------------------
 Trust Radius=3.00D-01 FncErr=1.00D-07 GrdErr=1.00D-06 EigMax=2.50D+02 EigMin=1.00D-04
 Number of steps in this run=    150 maximum allowed number of steps=    162.
 GradGradGradGradGradGradGradGradGradGradGradGradGradGradGradGradGradGrad

                          Input orientation:                          
 ---------------------------------------------------------------------
 Center     Atomic      Atomic             Coordinates (Angstroms)
 Number     Number       Type             X           Y           Z
 ---------------------------------------------------------------------
      1          6           0       -2.341100    0.002400    0.616200
      2          6           0       -2.085300    0.328600   -0.723100
      3          6           0       -0.780400    0.379800   -1.206800
      4          6           0        0.282900    0.105600   -0.351500
      5          6           0        0.050400   -0.219700    0.981700
      6          6           0       -1.256200   -0.271400    1.461100
      7          1           0       -0.594200    0.627600   -2.242200
      8          1           0        0.880200   -0.428300    1.641800
      9          1           0       -2.900100    0.530000   -1.403500
     10          1           0       -1.418600   -0.512400    2.501500
     11          6           0       -6.375800   -0.160800    2.096000
     12          6           0       -5.434900   -1.101300    2.520800
     13          6           0       -4.128700   -1.045100    2.040100
     14          6           0       -3.740500   -0.052600    1.131600
     15          6           0       -4.692100    0.886600    0.715300
     16          6           0       -5.999300    0.837500    1.193100
     17          1           0       -3.418600   -1.792600    2.363500
     18          1           0       -4.417100    1.671100    0.025200
     19          9           0       -8.773500    0.506500    1.481200
     20          9           0       -8.138700   -1.841000    2.838900
     21          9           0       -9.558900   -0.287100    3.342400
     22         16           0       -8.061700   -0.227100    2.736800
     23          9           0       -7.842700    1.206900    3.453300
     24          9           0       -8.396600   -1.086000    1.407700
     25          1           0        1.296300    0.145300   -0.725500
     26          1           0       -5.717000   -1.882900    3.212800
     27          1           0       -6.719100    1.574700    0.864200
 ---------------------------------------------------------------------
                    Distance matrix (angstroms):
                    1          2          3          4          5
     1  C    0.000000
     2  C    1.401986   0.000000
     3  C    2.429309   1.392606   0.000000
     4  C    2.798655   2.407527   1.391880   0.000000
     5  C    2.429443   2.787147   2.416436   1.391869   0.000000
     6  C    1.402081   2.412081   2.787138   2.407587   1.392731
     7  H    3.407783   2.149522   1.080800   2.148612   3.395137
     8  H    3.407951   3.867795   3.394870   2.148269   1.080654
     9  H    2.161025   1.080465   2.134099   3.379099   3.867387
    10  H    2.161107   3.398502   3.867145   3.378851   2.133876
    11  C    4.300610   5.157056   6.519911   7.099261   6.522360
    12  C    3.797006   4.877225   6.144349   6.511525   5.764943
    13  C    2.514013   3.701055   4.876865   5.148405   4.389348
    14  C    1.492308   2.514938   3.797009   4.290963   3.797541
    15  C    2.513729   3.029152   4.387791   5.147684   4.877107
    16  C    3.796397   4.387505   5.762458   6.510569   6.145017
    17  H    2.726919   3.975459   4.942314   4.967443   4.051833
    18  H    2.728299   2.792768   4.051033   4.968168   4.944550
    19  F    6.509847   7.044331   8.433922   9.248670   8.867811
    20  F    6.476935   7.351099   8.685863   9.213645   8.552144
    21  F    7.720921   8.530069   9.909694  10.519512   9.895256
    22  S    6.105316   6.927992   8.302869   8.903967   8.299795
    23  F    6.306152   7.166686   8.501571   9.039621   8.393153
    24  F    6.203238   6.809839   8.184784   8.935794   8.501986
    25  H    3.879595   3.386565   2.144603   1.080940   2.144767
    26  H    4.657616   5.794073   7.001621   7.256526   6.403666
    27  H    4.658381   5.054146   6.401952   7.257009   7.004271
                    6          7          8          9         10
     6  C    0.000000
     7  H    3.867929   0.000000
     8  H    2.149762   4.286518   0.000000
     9  H    3.398615   2.455630   4.948016   0.000000
    10  H    1.080225   4.947921   2.455736   4.304703   0.000000
    11  C    5.160003   7.271070   7.275121   4.980381   4.986169
    12  C    4.390129   7.007684   6.411401   4.948382   4.059291
    13  C    3.030694   5.799027   5.062427   3.981052   2.800232
    14  C    2.515589   4.663089   4.663939   2.733574   2.734824
    15  C    3.701701   5.060304   5.799818   2.797810   3.982903
    16  C    4.878369   6.407843   7.009358   4.054865   4.951460
    17  H    2.793626   5.920057   4.567477   4.455738   2.378646
    18  H    3.978241   4.565584   5.923028   2.375833   4.459903
    19  F    7.557469   8.987732   9.700184   6.543613   7.494913
    20  F    7.192412   9.425022   9.207026   7.145805   6.858481
    21  F    8.513188  10.601428  10.577655   8.217715   8.186718
    22  S    6.924175   9.015792   9.010942   6.660135   6.653386
    23  F    7.038197   9.236615   9.057836   6.962470   6.717959
    24  F    7.186914   8.782690   9.303031   6.381678   7.086459
    25  H    3.386756   2.471231   2.471086   4.268191   4.268112
    26  H    5.056097   7.893207   6.935917   5.921760   4.567325
    27  H    5.797211   6.932613   7.897217   4.562743   5.927229
                   11         12         13         14         15
    11  C    0.000000
    12  C    1.396527   0.000000
    13  C    2.415485   1.392979   0.000000
    14  C    2.808306   2.429123   1.400403   0.000000
    15  C    2.416242   2.786275   2.409145   1.400337   0.000000
    16  C    1.397707   2.416667   2.785810   2.428629   1.392651
    17  H    3.388120   2.137312   1.080549   2.156107   3.393594
    18  H    3.388300   3.866541   3.394221   2.157093   1.080418
    19  F    2.563637   3.848641   4.928894   5.076012   4.170001
    20  F    2.546132   2.821148   4.165530   5.045534   4.881448
    21  F    3.420759   4.283144   5.635390   6.228676   5.653757
    22  S    1.804793   2.776862   4.077132   4.613013   4.084237
    23  F    2.421706   3.463357   4.567541   4.879004   4.186349
    24  F    2.326668   3.163999   4.314693   4.777386   4.253691
    25  H    8.180200   7.576380   6.204532   5.371903   6.203738
    26  H    2.155664   1.081362   2.144722   3.404107   3.867565
    27  H    2.155724   3.399187   3.867333   3.404654   2.145782
                   16         17         18         19         20
    16  C    0.000000
    17  H    3.866171   0.000000
    18  H    2.135939   4.296727   0.000000
    19  F    2.808692   5.894003   4.738613   0.000000
    20  F    3.802638   4.744227   5.839697   2.785153   0.000000
    21  F    4.307548   6.397504   6.424677   2.170419   2.164506
    22  S    2.787450   4.914114   4.923317   1.619061   1.618958
    23  F    2.939912   5.455028   4.868479   2.290443   3.123267
    24  F    3.081064   5.117941   5.034812   1.638143   1.638558
    25  H    7.575351   5.960508   5.961087  10.315079  10.279570
    26  H    3.399920   2.451960   4.947873   4.248513   2.450752
    27  H    1.081550   4.947718   2.452023   2.396310   4.193055
                   21         22         23         24         25
    21  F    0.000000
    22  S    1.616156   0.000000
    23  F    2.278086   1.617927   0.000000
    24  F    2.394211   1.617521   3.122287   0.000000
    25  H   11.600437   9.984907  10.104983  10.000948   0.000000
    26  H    4.162159   2.909616   3.758099   3.327716   8.295190
    27  H    4.203836   2.925011   2.846259   3.191978   8.295599
                   26         27
    26  H    0.000000
    27  H    4.298270   0.000000
 Stoichiometry    C12H9F5S
 Framework group  C1[X(C12H9F5S)]
 Deg. of freedom    75
 Full point group                 C1      NOp   1
 Largest Abelian subgroup         C1      NOp   1
 Largest concise Abelian subgroup C1      NOp   1
                         Standard orientation:                         
 ---------------------------------------------------------------------
 Center     Atomic      Atomic             Coordinates (Angstroms)
 Number     Number       Type             X           Y           Z
 ---------------------------------------------------------------------
      1          6           0        3.136239   -0.009503    0.013096
      2          6           0        3.814159    1.109234   -0.491301
      3          6           0        5.205920    1.142170   -0.526917
      4          6           0        5.933354    0.053224   -0.055360
      5          6           0        5.279485   -1.066802    0.449910
      6          6           0        3.887445   -1.096419    0.482280
      7          1           0        5.718871    2.007484   -0.922191
      8          1           0        5.849724   -1.907848    0.817718
      9          1           0        3.264230    1.956689   -0.874451
     10          1           0        3.395775   -1.967677    0.889781
     11          6           0       -1.162269   -0.102749    0.109933
     12          6           0       -0.443490   -1.254117   -0.218695
     13          6           0        0.948770   -1.220646   -0.248382
     14          6           0        1.644732   -0.042430    0.049225
     15          6           0        0.913076    1.104784    0.380170
     16          6           0       -0.478919    1.078119    0.413522
     17          1           0        1.488762   -2.115005   -0.524275
     18          1           0        1.424174    2.024121    0.626957
     19          9           0       -3.214134    1.415599   -0.128196
     20          9           0       -3.138636   -1.211048   -1.051289
     21          9           0       -4.578242   -0.232925    0.235527
     22         16           0       -2.965394   -0.157083    0.165334
     23          9           0       -2.922784    0.143999    1.754429
     24          9           0       -2.900797    0.380726   -1.358794
     25          1           0        7.013689    0.077551   -0.082082
     26          1           0       -0.961795   -2.171125   -0.463235
     27          1           0       -1.026812    1.972787    0.676457
 ---------------------------------------------------------------------
 Rotational constants (GHZ):           1.3817689           0.1534834           0.1494033
 Standard basis: def2TZVP (5D, 7F)
 There are   708 symmetry adapted cartesian basis functions of A   symmetry.
 There are   618 symmetry adapted basis functions of A   symmetry.
   618 basis functions,  1008 primitive gaussians,   708 cartesian basis functions
    71 alpha electrons       71 beta electrons
       nuclear repulsion energy      1543.6155131130 Hartrees.
 NAtoms=   27 NActive=   27 NUniq=   27 SFac= 1.00D+00 NAtFMM=   60 NAOKFM=F Big=F
 Integral buffers will be    131072 words long.
 Raffenetti 2 integral format.
 Two-electron integral symmetry is turned on.
 One-electron integrals computed using PRISM.
   1 Symmetry operations used in ECPInt.
 ECPInt:  NShTT=   27966 NPrTT=   89268 LenC2=   23593 LenP2D=   53688.
 LDataN:  DoStor=T MaxTD1= 6 Len=  172
 NBasis=   618 RedAO= T EigKep=  7.06D-06  NBF=   618
 NBsUse=   618 1.00D-06 EigRej= -1.00D+00 NBFU=   618
 ExpMin= 9.52D-02 ExpMax= 6.07D+04 ExpMxC= 2.07D+03 IAcc=3 IRadAn=         5 AccDes= 0.00D+00
 Harris functional with IExCor= 1009 and IRadAn=       5 diagonalized for initial guess.
 HarFok:  IExCor= 1009 AccDes= 0.00D+00 IRadAn=         5 IDoV= 1 UseB2=F ITyADJ=14
 ICtDFT=  3500011 ScaDFX=  1.000000  1.000000  1.000000  1.000000
 FoFCou: FMM=F IPFlag=           0 FMFlag=      100000 FMFlg1=           0
         NFxFlg=           0 DoJE=T BraDBF=F KetDBF=T FulRan=T
         wScrn=  0.000000 ICntrl=       500 IOpCl=  0 I1Cent=   200000004 NGrid=           0
         NMat0=    1 NMatS0=      1 NMatT0=    0 NMatD0=    1 NMtDS0=    0 NMtDT0=    0
 Petite list used in FoFCou.
 Requested convergence on RMS density matrix=1.00D-08 within 128 cycles.
 Requested convergence on MAX density matrix=1.00D-06.
 Requested convergence on             energy=1.00D-06.
 No special actions if energy rises.
 Integral accuracy reduced to 1.0D-05 until final iterations.
 Problem detected with inexpensive integrals.
 Switching to full accuracy and repeating last cycle.
 SCF Done:  E(RM062X) =  -1359.72462505     A.U. after   24 cycles
            NFock= 24  Conv=0.65D-08     -V/T= 2.0026

 **********************************************************************

            Population analysis using the SCF Density.

 **********************************************************************

 Orbital symmetries:
       Occupied  (A) (A) (A) (A) (A) (A) (A) (A) (A) (A) (A) (A)
                 (A) (A) (A) (A) (A) (A) (A) (A) (A) (A) (A) (A)
                 (A) (A) (A) (A) (A) (A) (A) (A) (A) (A) (A) (A)
                 (A) (A) (A) (A) (A) (A) (A) (A) (A) (A) (A) (A)
                 (A) (A) (A) (A) (A) (A) (A) (A) (A) (A) (A) (A)
                 (A) (A) (A) (A) (A) (A) (A) (A) (A) (A) (A)
       Virtual   (A) (A) (A) (A) (A) (A) (A) (A) (A) (A) (A) (A)
                 (A) (A) (A) (A) (A) (A) (A) (A) (A) (A) (A) (A)
                 (A) (A) (A) (A) (A) (A) (A) (A) (A) (A) (A) (A)
                 (A) (A) (A) (A) (A) (A) (A) (A) (A) (A) (A) (A)
                 (A) (A) (A) (A) (A) (A) (A) (A) (A) (A) (A) (A)
                 (A) (A) (A) (A) (A) (A) (A) (A) (A) (A) (A) (A)
                 (A) (A) (A) (A) (A) (A) (A) (A) (A) (A) (A) (A)
                 (A) (A) (A) (A) (A) (A) (A) (A) (A) (A) (A) (A)
                 (A) (A) (A) (A) (A) (A) (A) (A) (A) (A) (A) (A)
                 (A) (A) (A) (A) (A) (A) (A) (A) (A) (A) (A) (A)
                 (A) (A) (A) (A) (A) (A) (A) (A) (A) (A) (A) (A)
                 (A) (A) (A) (A) (A) (A) (A) (A) (A) (A) (A) (A)
                 (A) (A) (A) (A) (A) (A) (A) (A) (A) (A) (A) (A)
                 (A) (A) (A) (A) (A) (A) (A) (A) (A) (A) (A) (A)
                 (A) (A) (A) (A) (A) (A) (A) (A) (A) (A) (A) (A)
                 (A) (A) (A) (A) (A) (A) (A) (A) (A) (A) (A) (A)
                 (A) (A) (A) (A) (A) (A) (A) (A) (A) (A) (A) (A)
                 (A) (A) (A) (A) (A) (A) (A) (A) (A) (A) (A) (A)
                 (A) (A) (A) (A) (A) (A) (A) (A) (A) (A) (A) (A)
                 (A) (A) (A) (A) (A) (A) (A) (A) (A) (A) (A) (A)
                 (A) (A) (A) (A) (A) (A) (A) (A) (A) (A) (A) (A)
                 (A) (A) (A) (A) (A) (A) (A) (A) (A) (A) (A) (A)
                 (A) (A) (A) (A) (A) (A) (A) (A) (A) (A) (A) (A)
                 (A) (A) (A) (A) (A) (A) (A) (A) (A) (A) (A) (A)
                 (A) (A) (A) (A) (A) (A) (A) (A) (A) (A) (A) (A)
                 (A) (A) (A) (A) (A) (A) (A) (A) (A) (A) (A) (A)
                 (A) (A) (A) (A) (A) (A) (A) (A) (A) (A) (A) (A)
                 (A) (A) (A) (A) (A) (A) (A) (A) (A) (A) (A) (A)
                 (A) (A) (A) (A) (A) (A) (A) (A) (A) (A) (A) (A)
                 (A) (A) (A) (A) (A) (A) (A) (A) (A) (A) (A) (A)
                 (A) (A) (A) (A) (A) (A) (A) (A) (A) (A) (A) (A)
                 (A) (A) (A) (A) (A) (A) (A) (A) (A) (A) (A) (A)
                 (A) (A) (A) (A) (A) (A) (A) (A) (A) (A) (A) (A)
                 (A) (A) (A) (A) (A) (A) (A) (A) (A) (A) (A) (A)
                 (A) (A) (A) (A) (A) (A) (A) (A) (A) (A) (A) (A)
                 (A) (A) (A) (A) (A) (A) (A) (A) (A) (A) (A) (A)
                 (A) (A) (A) (A) (A) (A) (A) (A) (A) (A) (A) (A)
                 (A) (A) (A) (A) (A) (A) (A) (A) (A) (A) (A) (A)
                 (A) (A) (A) (A) (A) (A) (A) (A) (A) (A) (A) (A)
                 (A) (A) (A) (A) (A) (A) (A) (A) (A) (A) (A) (A)
                 (A) (A) (A) (A) (A) (A) (A) (A) (A) (A) (A) (A)
                 (A) (A) (A) (A) (A) (A) (A) (A) (A) (A) (A) (A)
                 (A) (A) (A) (A) (A) (A) (A) (A) (A) (A) (A) (A)
                 (A) (A) (A) (A) (A) (A) (A) (A) (A) (A) (A) (A)
                 (A) (A) (A) (A) (A) (A) (A) (A) (A) (A) (A) (A)
                 (A) (A) (A) (A) (A) (A) (A)
 The electronic state is 1-A.
 Alpha  occ. eigenvalues --  -90.26093 -25.30905 -25.29446 -25.25117 -25.20528
 Alpha  occ. eigenvalues --  -25.13789 -10.62234 -10.58624 -10.58483 -10.58476
 Alpha  occ. eigenvalues --  -10.57575 -10.57480 -10.57442 -10.56132 -10.56103
 Alpha  occ. eigenvalues --  -10.55878 -10.55849 -10.55712  -8.57030  -6.49375
 Alpha  occ. eigenvalues --   -6.49275  -6.49010  -1.49652  -1.41585  -1.37432
 Alpha  occ. eigenvalues --   -1.35874  -1.21873  -1.01056  -0.98047  -0.93891
 Alpha  occ. eigenvalues --   -0.88883  -0.88062  -0.86059  -0.83777  -0.75392
 Alpha  occ. eigenvalues --   -0.73790  -0.72123  -0.70132  -0.70103  -0.68503
 Alpha  occ. eigenvalues --   -0.67779  -0.65425  -0.63024  -0.62620  -0.59974
 Alpha  occ. eigenvalues --   -0.58703  -0.57541  -0.56574  -0.55915  -0.55279
 Alpha  occ. eigenvalues --   -0.53718  -0.53102  -0.52856  -0.52369  -0.51474
 Alpha  occ. eigenvalues --   -0.50577  -0.50041  -0.49311  -0.47609  -0.46053
 Alpha  occ. eigenvalues --   -0.45483  -0.44447  -0.43854  -0.41798  -0.41668
 Alpha  occ. eigenvalues --   -0.40994  -0.35961  -0.34187  -0.32609  -0.31669
 Alpha  occ. eigenvalues --   -0.30432
 Alpha virt. eigenvalues --   -0.11413  -0.03332  -0.01140   0.00313   0.02621
 Alpha virt. eigenvalues --    0.06161   0.07161   0.08119   0.08411   0.10506
 Alpha virt. eigenvalues --    0.10915   0.12649   0.12856   0.13294   0.14057
 Alpha virt. eigenvalues --    0.14895   0.15916   0.16470   0.16666   0.17948
 Alpha virt. eigenvalues --    0.18378   0.20421   0.21419   0.21449   0.22511
 Alpha virt. eigenvalues --    0.23070   0.23441   0.23996   0.24966   0.25529
 Alpha virt. eigenvalues --    0.25571   0.26299   0.26563   0.27990   0.28137
 Alpha virt. eigenvalues --    0.28651   0.29229   0.29852   0.30509   0.31650
 Alpha virt. eigenvalues --    0.32364   0.33187   0.34067   0.34437   0.35283
 Alpha virt. eigenvalues --    0.35755   0.36013   0.36381   0.37740   0.37946
 Alpha virt. eigenvalues --    0.38815   0.39468   0.39832   0.40645   0.41569
 Alpha virt. eigenvalues --    0.41926   0.42438   0.42704   0.43471   0.44561
 Alpha virt. eigenvalues --    0.44798   0.45335   0.45847   0.46200   0.47355
 Alpha virt. eigenvalues --    0.47970   0.48832   0.49742   0.49878   0.50877
 Alpha virt. eigenvalues --    0.51389   0.51649   0.52906   0.53193   0.53834
 Alpha virt. eigenvalues --    0.55297   0.55699   0.56835   0.57673   0.58653
 Alpha virt. eigenvalues --    0.60294   0.60611   0.62170   0.62672   0.63287
 Alpha virt. eigenvalues --    0.64021   0.64474   0.65438   0.65535   0.67068
 Alpha virt. eigenvalues --    0.67294   0.68571   0.69239   0.70178   0.70721
 Alpha virt. eigenvalues --    0.71739   0.72372   0.72894   0.73171   0.73869
 Alpha virt. eigenvalues --    0.74508   0.74636   0.75696   0.76101   0.76854
 Alpha virt. eigenvalues --    0.77907   0.79904   0.80083   0.80357   0.81550
 Alpha virt. eigenvalues --    0.81931   0.82773   0.83100   0.84408   0.85164
 Alpha virt. eigenvalues --    0.86689   0.87237   0.87906   0.89011   0.90169
 Alpha virt. eigenvalues --    0.91296   0.91526   0.92410   0.92697   0.93425
 Alpha virt. eigenvalues --    0.94007   0.95085   0.97021   0.97736   0.98581
 Alpha virt. eigenvalues --    1.00743   1.01064   1.02906   1.03735   1.04532
 Alpha virt. eigenvalues --    1.05495   1.06509   1.07945   1.07976   1.11570
 Alpha virt. eigenvalues --    1.12088   1.13289   1.14558   1.15858   1.16659
 Alpha virt. eigenvalues --    1.17648   1.18137   1.19963   1.21361   1.22129
 Alpha virt. eigenvalues --    1.22400   1.23287   1.23962   1.24315   1.25969
 Alpha virt. eigenvalues --    1.27958   1.28768   1.29571   1.30113   1.30623
 Alpha virt. eigenvalues --    1.31926   1.33883   1.35218   1.35453   1.36492
 Alpha virt. eigenvalues --    1.36848   1.40017   1.40362   1.43145   1.44849
 Alpha virt. eigenvalues --    1.45460   1.46278   1.47392   1.48127   1.48616
 Alpha virt. eigenvalues --    1.49126   1.50950   1.52529   1.52972   1.53839
 Alpha virt. eigenvalues --    1.53927   1.56399   1.56970   1.57340   1.58191
 Alpha virt. eigenvalues --    1.58420   1.58652   1.60453   1.62073   1.62485
 Alpha virt. eigenvalues --    1.63764   1.64222   1.65473   1.66256   1.68131
 Alpha virt. eigenvalues --    1.68574   1.70141   1.70994   1.72319   1.73149
 Alpha virt. eigenvalues --    1.74136   1.75338   1.75624   1.76849   1.77834
 Alpha virt. eigenvalues --    1.80128   1.81470   1.83028   1.85291   1.87300
 Alpha virt. eigenvalues --    1.88004   1.88607   1.89151   1.90175   1.92272
 Alpha virt. eigenvalues --    1.92783   1.93662   1.95192   1.96183   1.99292
 Alpha virt. eigenvalues --    2.01059   2.02291   2.03772   2.04148   2.04655
 Alpha virt. eigenvalues --    2.04922   2.06715   2.07089   2.08494   2.09434
 Alpha virt. eigenvalues --    2.09624   2.11387   2.13238   2.14365   2.15161
 Alpha virt. eigenvalues --    2.18072   2.18444   2.19189   2.19881   2.20718
 Alpha virt. eigenvalues --    2.23561   2.24235   2.25266   2.25773   2.26984
 Alpha virt. eigenvalues --    2.28348   2.30586   2.32492   2.33726   2.33802
 Alpha virt. eigenvalues --    2.36597   2.37680   2.38762   2.39935   2.41428
 Alpha virt. eigenvalues --    2.43551   2.44091   2.46293   2.46663   2.47452
 Alpha virt. eigenvalues --    2.50347   2.51326   2.51673   2.52459   2.53598
 Alpha virt. eigenvalues --    2.54649   2.55244   2.56890   2.58976   2.59053
 Alpha virt. eigenvalues --    2.60746   2.60801   2.61824   2.63191   2.64088
 Alpha virt. eigenvalues --    2.64561   2.64883   2.65216   2.66636   2.67094
 Alpha virt. eigenvalues --    2.67679   2.68033   2.68317   2.68996   2.69639
 Alpha virt. eigenvalues --    2.70597   2.71705   2.72088   2.72854   2.73716
 Alpha virt. eigenvalues --    2.75169   2.75747   2.76882   2.77552   2.77977
 Alpha virt. eigenvalues --    2.79492   2.79938   2.80640   2.81392   2.81708
 Alpha virt. eigenvalues --    2.82737   2.83283   2.83771   2.85100   2.85591
 Alpha virt. eigenvalues --    2.85631   2.86190   2.88641   2.89373   2.90144
 Alpha virt. eigenvalues --    2.91662   2.92992   2.93567   2.95407   2.96181
 Alpha virt. eigenvalues --    2.96913   2.98657   2.99800   3.00898   3.02662
 Alpha virt. eigenvalues --    3.03640   3.04023   3.06028   3.06697   3.06961
 Alpha virt. eigenvalues --    3.09349   3.10514   3.10724   3.12335   3.12586
 Alpha virt. eigenvalues --    3.13597   3.13904   3.14598   3.16295   3.17279
 Alpha virt. eigenvalues --    3.18142   3.18320   3.19488   3.20736   3.22411
 Alpha virt. eigenvalues --    3.23666   3.25034   3.26677   3.27601   3.28116
 Alpha virt. eigenvalues --    3.28583   3.29351   3.29542   3.30176   3.33097
 Alpha virt. eigenvalues --    3.34478   3.34799   3.35450   3.36049   3.36901
 Alpha virt. eigenvalues --    3.37148   3.38798   3.39314   3.40102   3.40551
 Alpha virt. eigenvalues --    3.41463   3.42028   3.42586   3.43003   3.43935
 Alpha virt. eigenvalues --    3.44532   3.45886   3.47273   3.47592   3.49181
 Alpha virt. eigenvalues --    3.49956   3.50241   3.51714   3.52024   3.52875
 Alpha virt. eigenvalues --    3.54754   3.56540   3.57963   3.59376   3.60166
 Alpha virt. eigenvalues --    3.61096   3.61800   3.63280   3.67264   3.69997
 Alpha virt. eigenvalues --    3.72688   3.72801   3.75437   3.76410   3.76731
 Alpha virt. eigenvalues --    3.79310   3.80861   3.84096   3.84322   3.87295
 Alpha virt. eigenvalues --    3.91552   3.91612   3.93064   3.93960   3.95766
 Alpha virt. eigenvalues --    3.97849   3.99146   4.00191   4.00522   4.02193
 Alpha virt. eigenvalues --    4.02552   4.05057   4.06300   4.07856   4.08200
 Alpha virt. eigenvalues --    4.09149   4.11450   4.11867   4.13204   4.14363
 Alpha virt. eigenvalues --    4.15177   4.16116   4.17012   4.17218   4.17631
 Alpha virt. eigenvalues --    4.18218   4.19069   4.19454   4.20010   4.25392
 Alpha virt. eigenvalues --    4.27461   4.28324   4.29023   4.29194   4.34416
 Alpha virt. eigenvalues --    4.36335   4.43617   4.47922   4.53039   4.54086
 Alpha virt. eigenvalues --    4.56033   4.57615   4.58486   4.59835   4.61540
 Alpha virt. eigenvalues --    4.63253   4.63587   4.66462   4.69625   4.70657
 Alpha virt. eigenvalues --    4.81565   4.82048   4.83599   4.86281   4.87045
 Alpha virt. eigenvalues --    4.88101   4.90634   4.91374   5.07406   5.11055
 Alpha virt. eigenvalues --    5.11860   5.16631   5.19895   5.23142   5.26944
 Alpha virt. eigenvalues --    5.33181   5.35421   5.39848   5.51600   5.51832
 Alpha virt. eigenvalues --    5.68403   6.75197   6.77769   6.79501   6.82297
 Alpha virt. eigenvalues --    6.83142   6.83539   6.84493   6.85009   6.86094
 Alpha virt. eigenvalues --    6.86583   6.87072   6.87493   6.88066   6.88413
 Alpha virt. eigenvalues --    6.88722   6.89448   6.89672   6.91466   6.92243
 Alpha virt. eigenvalues --    6.94945   6.96575   6.99481   7.02291   7.02551
 Alpha virt. eigenvalues --    7.04257   7.07207   7.08139   7.10159   7.12492
 Alpha virt. eigenvalues --    7.14560   7.18539   7.21097   7.24826   7.34114
 Alpha virt. eigenvalues --    7.34884   8.23044   8.25784   8.28008   8.31680
 Alpha virt. eigenvalues --    8.33335   8.36397   8.42891   8.46345   8.48638
 Alpha virt. eigenvalues --    8.49823   8.53723   8.57422   8.61415   8.65443
 Alpha virt. eigenvalues --    8.69151   8.72381   8.79099   8.80979   8.84032
 Alpha virt. eigenvalues --    8.88705   8.90127   8.93466   8.97319   9.35427
 Alpha virt. eigenvalues --    9.41453   9.50749   9.59131   9.60184  20.67636
 Alpha virt. eigenvalues --   22.02027  22.37643  22.66023  22.69845  22.75765
 Alpha virt. eigenvalues --   22.77692  22.78966  22.85408  22.91090  22.94790
 Alpha virt. eigenvalues --   23.24455  23.43251  57.15843  57.28842  57.37221
 Alpha virt. eigenvalues --   57.39956  57.62418
          Condensed to atoms (all electrons):
               1          2          3          4          5          6
     1  C    4.968598   0.508046  -0.061057  -0.037000  -0.060870   0.507200
     2  C    0.508046   5.011624   0.505358  -0.043119  -0.045170  -0.033444
     3  C   -0.061057   0.505358   4.898596   0.522457  -0.037614  -0.047054
     4  C   -0.037000  -0.043119   0.522457   4.869968   0.522499  -0.042993
     5  C   -0.060870  -0.045170  -0.037614   0.522499   4.895868   0.506712
     6  C    0.507200  -0.033444  -0.047054  -0.042993   0.506712   5.013169
     7  H    0.004281  -0.029582   0.407689  -0.030446   0.003477   0.000173
     8  H    0.004326   0.000080   0.003542  -0.030244   0.408172  -0.030481
     9  H   -0.035623   0.394459  -0.017575   0.002052   0.000084   0.004373
    10  H   -0.037099   0.004616  -0.000015   0.002183  -0.017500   0.395070
    11  C   -0.004205  -0.000152  -0.000074   0.000015  -0.000016   0.000196
    12  C    0.004005  -0.002525   0.000142  -0.000050  -0.000162   0.001808
    13  C   -0.069818   0.013689  -0.000703   0.000052   0.002327  -0.003758
    14  C    0.255306  -0.078740   0.008435  -0.002890   0.006263  -0.080594
    15  C   -0.062047  -0.006710   0.000842   0.000180  -0.001004   0.014409
    16  C   -0.000597   0.003871   0.000257  -0.000063   0.000069  -0.002061
    17  H    0.001851   0.000561  -0.000113  -0.000049   0.000657   0.001918
    18  H    0.001582   0.001481   0.000514  -0.000039  -0.000138   0.000702
    19  F    0.000011  -0.000000   0.000000  -0.000000   0.000000   0.000000
    20  F    0.000007   0.000000  -0.000000   0.000000  -0.000000  -0.000000
    21  F   -0.000000  -0.000000   0.000000   0.000000  -0.000000  -0.000000
    22  S   -0.000145   0.000001   0.000000   0.000000  -0.000000   0.000002
    23  F   -0.000011  -0.000000  -0.000000   0.000000   0.000000  -0.000000
    24  F   -0.000053   0.000000   0.000000  -0.000000  -0.000000  -0.000000
    25  H    0.000926   0.004311  -0.033900   0.409842  -0.033986   0.004324
    26  H    0.000134  -0.000001   0.000000  -0.000000   0.000000   0.000099
    27  H    0.000325   0.000074   0.000003  -0.000000   0.000000   0.000017
               7          8          9         10         11         12
     1  C    0.004281   0.004326  -0.035623  -0.037099  -0.004205   0.004005
     2  C   -0.029582   0.000080   0.394459   0.004616  -0.000152  -0.002525
     3  C    0.407689   0.003542  -0.017575  -0.000015  -0.000074   0.000142
     4  C   -0.030446  -0.030244   0.002052   0.002183   0.000015  -0.000050
     5  C    0.003477   0.408172   0.000084  -0.017500  -0.000016  -0.000162
     6  C    0.000173  -0.030481   0.004373   0.395070   0.000196   0.001808
     7  H    0.501535  -0.000252  -0.003029   0.000065  -0.000000  -0.000000
     8  H   -0.000252   0.502555   0.000062  -0.003112  -0.000000  -0.000001
     9  H   -0.003029   0.000062   0.482053  -0.000219  -0.000156  -0.000145
    10  H    0.000065  -0.003112  -0.000219   0.486691  -0.000115   0.000628
    11  C   -0.000000  -0.000000  -0.000156  -0.000115   5.824474  -0.024835
    12  C   -0.000000  -0.000001  -0.000145   0.000628  -0.024835   5.569457
    13  C    0.000028   0.000029   0.000789   0.001486   0.154064   0.185292
    14  C   -0.000250  -0.000200   0.002727   0.001700  -0.197875   0.091869
    15  C    0.000056   0.000033   0.000721   0.000868   0.141858  -0.134884
    16  C   -0.000002  -0.000000   0.001169  -0.000175   0.086622   0.047996
    17  H    0.000002   0.000049   0.000061  -0.002019   0.008051  -0.026255
    18  H    0.000051   0.000002  -0.002162   0.000057   0.010741  -0.000779
    19  F    0.000000   0.000000   0.000000   0.000000  -0.007201   0.011536
    20  F    0.000000   0.000000   0.000000   0.000000  -0.030451  -0.009249
    21  F   -0.000000  -0.000000   0.000000  -0.000000   0.012528   0.000444
    22  S   -0.000000  -0.000000   0.000000   0.000000   0.331675  -0.079097
    23  F   -0.000000  -0.000000  -0.000000   0.000000  -0.059708   0.010176
    24  F   -0.000000  -0.000000   0.000000  -0.000000  -0.114655   0.032802
    25  H   -0.003762  -0.003774  -0.000272  -0.000276   0.000000  -0.000000
    26  H    0.000000   0.000000   0.000001   0.000054  -0.071205   0.416943
    27  H    0.000000   0.000000   0.000055   0.000002  -0.051159   0.017033
              13         14         15         16         17         18
     1  C   -0.069818   0.255306  -0.062047  -0.000597   0.001851   0.001582
     2  C    0.013689  -0.078740  -0.006710   0.003871   0.000561   0.001481
     3  C   -0.000703   0.008435   0.000842   0.000257  -0.000113   0.000514
     4  C    0.000052  -0.002890   0.000180  -0.000063  -0.000049  -0.000039
     5  C    0.002327   0.006263  -0.001004   0.000069   0.000657  -0.000138
     6  C   -0.003758  -0.080594   0.014409  -0.002061   0.001918   0.000702
     7  H    0.000028  -0.000250   0.000056  -0.000002   0.000002   0.000051
     8  H    0.000029  -0.000200   0.000033  -0.000000   0.000049   0.000002
     9  H    0.000789   0.002727   0.000721   0.001169   0.000061  -0.002162
    10  H    0.001486   0.001700   0.000868  -0.000175  -0.002019   0.000057
    11  C    0.154064  -0.197875   0.141858   0.086622   0.008051   0.010741
    12  C    0.185292   0.091869  -0.134884   0.047996  -0.026255  -0.000779
    13  C    5.277924   0.373766   0.027977  -0.124539   0.401836   0.005736
    14  C    0.373766   5.122646   0.349139   0.090351  -0.037355  -0.044457
    15  C    0.027977   0.349139   5.231920   0.264828   0.006725   0.406982
    16  C   -0.124539   0.090351   0.264828   5.398520  -0.001622  -0.027644
    17  H    0.401836  -0.037355   0.006725  -0.001622   0.472148  -0.000168
    18  H    0.005736  -0.044457   0.406982  -0.027644  -0.000168   0.473631
    19  F   -0.000850   0.000091   0.001177  -0.026294  -0.000000  -0.000030
    20  F    0.000616  -0.000093  -0.000060   0.003059  -0.000027   0.000002
    21  F   -0.000245   0.000034  -0.000192   0.000252  -0.000000  -0.000000
    22  S    0.009209  -0.002072   0.004942  -0.038086  -0.000108  -0.000128
    23  F   -0.002195   0.000290  -0.001715  -0.003903   0.000001   0.000001
    24  F   -0.008613   0.002295  -0.007820   0.035172  -0.000044  -0.000052
    25  H   -0.000007   0.000098  -0.000005  -0.000000   0.000000   0.000000
    26  H   -0.026952   0.009510  -0.001779   0.010621  -0.004291   0.000030
    27  H   -0.004028   0.009936  -0.036726   0.405384   0.000009  -0.004378
              19         20         21         22         23         24
     1  C    0.000011   0.000007  -0.000000  -0.000145  -0.000011  -0.000053
     2  C   -0.000000   0.000000  -0.000000   0.000001  -0.000000   0.000000
     3  C    0.000000  -0.000000   0.000000   0.000000  -0.000000   0.000000
     4  C   -0.000000   0.000000   0.000000   0.000000   0.000000  -0.000000
     5  C    0.000000  -0.000000  -0.000000  -0.000000   0.000000  -0.000000
     6  C    0.000000  -0.000000  -0.000000   0.000002  -0.000000  -0.000000
     7  H    0.000000   0.000000  -0.000000  -0.000000  -0.000000  -0.000000
     8  H    0.000000   0.000000  -0.000000  -0.000000  -0.000000  -0.000000
     9  H    0.000000   0.000000   0.000000   0.000000  -0.000000   0.000000
    10  H    0.000000   0.000000  -0.000000   0.000000   0.000000  -0.000000
    11  C   -0.007201  -0.030451   0.012528   0.331675  -0.059708  -0.114655
    12  C    0.011536  -0.009249   0.000444  -0.079097   0.010176   0.032802
    13  C   -0.000850   0.000616  -0.000245   0.009209  -0.002195  -0.008613
    14  C    0.000091  -0.000093   0.000034  -0.002072   0.000290   0.002295
    15  C    0.001177  -0.000060  -0.000192   0.004942  -0.001715  -0.007820
    16  C   -0.026294   0.003059   0.000252  -0.038086  -0.003903   0.035172
    17  H   -0.000000  -0.000027  -0.000000  -0.000108   0.000001  -0.000044
    18  H   -0.000030   0.000002  -0.000000  -0.000128   0.000001  -0.000052
    19  F    9.495529   0.002312  -0.060690   0.258107  -0.042034  -0.426684
    20  F    0.002312   9.439124  -0.058968   0.216277   0.001202  -0.410519
    21  F   -0.060690  -0.058968   9.085597   0.270692  -0.042400  -0.018363
    22  S    0.258107   0.216277   0.270692  13.702371   0.226588   0.286030
    23  F   -0.042034   0.001202  -0.042400   0.226588   9.096074   0.003438
    24  F   -0.426684  -0.410519  -0.018363   0.286030   0.003438   9.898858
    25  H    0.000000   0.000000  -0.000000  -0.000000  -0.000000  -0.000000
    26  H    0.000119   0.009565   0.000280  -0.004534   0.000326   0.006682
    27  H    0.012671  -0.000195   0.000448  -0.007672   0.001823   0.005827
              25         26         27
     1  C    0.000926   0.000134   0.000325
     2  C    0.004311  -0.000001   0.000074
     3  C   -0.033900   0.000000   0.000003
     4  C    0.409842  -0.000000  -0.000000
     5  C   -0.033986   0.000000   0.000000
     6  C    0.004324   0.000099   0.000017
     7  H   -0.003762   0.000000   0.000000
     8  H   -0.003774   0.000000   0.000000
     9  H   -0.000272   0.000001   0.000055
    10  H   -0.000276   0.000054   0.000002
    11  C    0.000000  -0.071205  -0.051159
    12  C   -0.000000   0.416943   0.017033
    13  C   -0.000007  -0.026952  -0.004028
    14  C    0.000098   0.009510   0.009936
    15  C   -0.000005  -0.001779  -0.036726
    16  C   -0.000000   0.010621   0.405384
    17  H    0.000000  -0.004291   0.000009
    18  H    0.000000   0.000030  -0.004378
    19  F    0.000000   0.000119   0.012671
    20  F    0.000000   0.009565  -0.000195
    21  F   -0.000000   0.000280   0.000448
    22  S   -0.000000  -0.004534  -0.007672
    23  F   -0.000000   0.000326   0.001823
    24  F   -0.000000   0.006682   0.005827
    25  H    0.509051  -0.000000  -0.000000
    26  H   -0.000000   0.478370   0.000147
    27  H   -0.000000   0.000147   0.466287
 Mulliken charges:
               1
     1  C    0.111930
     2  C   -0.208730
     3  C   -0.149732
     4  C   -0.142353
     5  C   -0.149670
     6  C   -0.209789
     7  H    0.149966
     8  H    0.149213
     9  H    0.170574
    10  H    0.167110
    11  C   -0.008415
    12  C   -0.112148
    13  C   -0.213112
    14  C    0.120070
    15  C   -0.199714
    16  C   -0.123185
    17  H    0.178181
    18  H    0.178463
    19  F   -0.217770
    20  F   -0.162600
    21  F   -0.189416
    22  S    0.825949
    23  F   -0.187951
    24  F   -0.284301
    25  H    0.147429
    26  H    0.175883
    27  H    0.184117
 Sum of Mulliken charges =  -0.00000
 Mulliken charges with hydrogens summed into heavy atoms:
               1
     1  C    0.111930
     2  C   -0.038156
     3  C    0.000234
     4  C    0.005076
     5  C   -0.000457
     6  C   -0.042678
    11  C   -0.008415
    12  C    0.063735
    13  C   -0.034931
    14  C    0.120070
    15  C   -0.021251
    16  C    0.060933
    19  F   -0.217770
    20  F   -0.162600
    21  F   -0.189416
    22  S    0.825949
    23  F   -0.187951
    24  F   -0.284301
 Electronic spatial extent (au):  <R**2>=           6737.7898
 Charge=              0.0000 electrons
 Dipole moment (field-independent basis, Debye):
    X=              5.3814    Y=             -1.4674    Z=              1.8688  Tot=              5.8826
 Quadrupole moment (field-independent basis, Debye-Ang):
   XX=           -108.0559   YY=            -99.0252   ZZ=           -114.6202
   XY=              4.9891   XZ=             -5.9676   YZ=             -1.4746
 Traceless Quadrupole moment (field-independent basis, Debye-Ang):
   XX=             -0.8222   YY=              8.2086   ZZ=             -7.3864
   XY=              4.9891   XZ=             -5.9676   YZ=             -1.4746
 Octapole moment (field-independent basis, Debye-Ang**2):
  XXX=              7.6964  YYY=              1.5393  ZZZ=             -3.2158  XYY=            -23.7849
  XXY=            -12.6777  XXZ=             12.0273  XZZ=            -48.7903  YZZ=              1.1531
  YYZ=              0.7694  XYZ=            -11.5456
 Hexadecapole moment (field-independent basis, Debye-Ang**3):
 XXXX=          -6817.7066 YYYY=           -630.1611 ZZZZ=           -372.3818 XXXY=             30.2183
 XXXZ=            -39.3131 YYYX=             -0.5245 YYYZ=              0.6984 ZZZX=              6.8376
 ZZZY=              7.1109 XXYY=          -1277.0831 XXZZ=          -1372.8455 YYZZ=           -168.9918
 XXYZ=            -81.1702 YYXZ=             -5.9171 ZZXY=              0.3110
 N-N= 1.543615513113D+03 E-N=-6.296427613866D+03  KE= 1.356232447636D+03
 ******************************Gaussian NBO Version 3.1******************************
             N A T U R A L   A T O M I C   O R B I T A L   A N D
          N A T U R A L   B O N D   O R B I T A L   A N A L Y S I S
 ******************************Gaussian NBO Version 3.1******************************
       /RESON  / : Allow strongly delocalized NBO set

 Analyzing the SCF density

 Job title: Structure697                                                    

 Storage needed:   1148604 in NPA,   1530316 in NBO (1048571977 available)
 GSVD:  LWork=       93132 too small for GESVD, short by      481050 words or      481050 for optimal perf.


 NATURAL POPULATIONS:  Natural atomic orbital occupancies 
                                                          
   NAO  Atom  No  lang   Type(AO)    Occupancy      Energy
 ----------------------------------------------------------
     1    C    1  S      Cor( 1S)     1.99911     -10.41102
     2    C    1  S      Val( 2S)     0.90993      -0.22116
     3    C    1  S      Ryd( 3S)     0.00082       1.44652
     4    C    1  S      Ryd( 4S)     0.00019       1.69584
     5    C    1  S      Ryd( 5S)     0.00000      21.35910
     6    C    1  px     Val( 2p)     1.03731      -0.07677
     7    C    1  px     Ryd( 3p)     0.00615       1.22982
     8    C    1  px     Ryd( 4p)     0.00047       1.87131
     9    C    1  py     Val( 2p)     1.07018      -0.09805
    10    C    1  py     Ryd( 3p)     0.00417       1.10495
    11    C    1  py     Ryd( 4p)     0.00042       1.47213
    12    C    1  pz     Val( 2p)     1.02638      -0.12572
    13    C    1  pz     Ryd( 3p)     0.00182       0.81250
    14    C    1  pz     Ryd( 4p)     0.00022       1.33632
    15    C    1  dxy    Ryd( 3d)     0.00146       2.25849
    16    C    1  dxy    Ryd( 4d)     0.00039       3.37816
    17    C    1  dxz    Ryd( 3d)     0.00039       1.40414
    18    C    1  dxz    Ryd( 4d)     0.00029       3.32732
    19    C    1  dyz    Ryd( 3d)     0.00032       1.60814
    20    C    1  dyz    Ryd( 4d)     0.00029       3.34308
    21    C    1  dx2y2  Ryd( 3d)     0.00128       2.35775
    22    C    1  dx2y2  Ryd( 4d)     0.00057       3.42086
    23    C    1  dz2    Ryd( 3d)     0.00035       1.65582
    24    C    1  dz2    Ryd( 4d)     0.00030       3.50391
    25    C    1  f(0)   Ryd( 4f)     0.00009       3.63239
    26    C    1  f(C1)  Ryd( 4f)     0.00007       3.69334
    27    C    1  f(S1)  Ryd( 4f)     0.00009       3.48634
    28    C    1  f(C2)  Ryd( 4f)     0.00006       3.70518
    29    C    1  f(S2)  Ryd( 4f)     0.00005       3.80106
    30    C    1  f(C3)  Ryd( 4f)     0.00009       4.20938
    31    C    1  f(S3)  Ryd( 4f)     0.00006       4.19978
 
    32    C    2  S      Cor( 1S)     1.99916     -10.39931
    33    C    2  S      Val( 2S)     0.97011      -0.24524
    34    C    2  S      Ryd( 3S)     0.00100       1.32536
    35    C    2  S      Ryd( 4S)     0.00021       1.48253
    36    C    2  S      Ryd( 5S)     0.00001      21.37401
    37    C    2  px     Val( 2p)     1.08384      -0.08497
    38    C    2  px     Ryd( 3p)     0.00315       1.14576
    39    C    2  px     Ryd( 4p)     0.00018       2.40395
    40    C    2  py     Val( 2p)     1.10391      -0.09031
    41    C    2  py     Ryd( 3p)     0.00362       1.00979
    42    C    2  py     Ryd( 4p)     0.00027       2.43628
    43    C    2  pz     Val( 2p)     1.01746      -0.12364
    44    C    2  pz     Ryd( 3p)     0.00173       0.72370
    45    C    2  pz     Ryd( 4p)     0.00034       1.65503
    46    C    2  dxy    Ryd( 3d)     0.00154       1.75751
    47    C    2  dxy    Ryd( 4d)     0.00067       3.47960
    48    C    2  dxz    Ryd( 3d)     0.00044       1.46626
    49    C    2  dxz    Ryd( 4d)     0.00030       3.09841
    50    C    2  dyz    Ryd( 3d)     0.00075       1.49305
    51    C    2  dyz    Ryd( 4d)     0.00015       3.16056
    52    C    2  dx2y2  Ryd( 3d)     0.00151       1.72432
    53    C    2  dx2y2  Ryd( 4d)     0.00039       3.39712
    54    C    2  dz2    Ryd( 3d)     0.00077       1.48574
    55    C    2  dz2    Ryd( 4d)     0.00006       3.19459
    56    C    2  f(0)   Ryd( 4f)     0.00024       3.48625
    57    C    2  f(C1)  Ryd( 4f)     0.00013       3.52843
    58    C    2  f(S1)  Ryd( 4f)     0.00022       3.34857
    59    C    2  f(C2)  Ryd( 4f)     0.00010       3.57387
    60    C    2  f(S2)  Ryd( 4f)     0.00010       3.62870
    61    C    2  f(C3)  Ryd( 4f)     0.00011       4.12305
    62    C    2  f(S3)  Ryd( 4f)     0.00006       3.89152
 
    63    C    3  S      Cor( 1S)     1.99924     -10.39766
    64    C    3  S      Val( 2S)     0.97679      -0.24987
    65    C    3  S      Ryd( 3S)     0.00094       1.07136
    66    C    3  S      Ryd( 4S)     0.00017       1.40943
    67    C    3  S      Ryd( 5S)     0.00000      21.58403
    68    C    3  px     Val( 2p)     1.07262      -0.07896
    69    C    3  px     Ryd( 3p)     0.00384       1.03948
    70    C    3  px     Ryd( 4p)     0.00026       2.17544
    71    C    3  py     Val( 2p)     1.11964      -0.09314
    72    C    3  py     Ryd( 3p)     0.00398       1.07920
    73    C    3  py     Ryd( 4p)     0.00018       1.97925
    74    C    3  pz     Val( 2p)     1.01573      -0.12261
    75    C    3  pz     Ryd( 3p)     0.00185       0.77506
    76    C    3  pz     Ryd( 4p)     0.00031       1.45913
    77    C    3  dxy    Ryd( 3d)     0.00116       1.78642
    78    C    3  dxy    Ryd( 4d)     0.00062       3.44646
    79    C    3  dxz    Ryd( 3d)     0.00035       1.45523
    80    C    3  dxz    Ryd( 4d)     0.00028       3.05338
    81    C    3  dyz    Ryd( 3d)     0.00066       1.46623
    82    C    3  dyz    Ryd( 4d)     0.00019       3.11059
    83    C    3  dx2y2  Ryd( 3d)     0.00167       1.67065
    84    C    3  dx2y2  Ryd( 4d)     0.00050       3.36929
    85    C    3  dz2    Ryd( 3d)     0.00057       1.46360
    86    C    3  dz2    Ryd( 4d)     0.00008       3.14611
    87    C    3  f(0)   Ryd( 4f)     0.00022       3.45599
    88    C    3  f(C1)  Ryd( 4f)     0.00012       3.54416
    89    C    3  f(S1)  Ryd( 4f)     0.00014       3.29992
    90    C    3  f(C2)  Ryd( 4f)     0.00009       3.56954
    91    C    3  f(S2)  Ryd( 4f)     0.00007       3.60047
    92    C    3  f(C3)  Ryd( 4f)     0.00007       4.11704
    93    C    3  f(S3)  Ryd( 4f)     0.00007       3.85183
 
    94    C    4  S      Cor( 1S)     1.99924     -10.39652
    95    C    4  S      Val( 2S)     0.97804      -0.25051
    96    C    4  S      Ryd( 3S)     0.00090       1.09390
    97    C    4  S      Ryd( 4S)     0.00016       1.36508
    98    C    4  S      Ryd( 5S)     0.00000      21.62717
    99    C    4  px     Val( 2p)     1.17159      -0.08587
   100    C    4  px     Ryd( 3p)     0.00460       1.18163
   101    C    4  px     Ryd( 4p)     0.00015       2.08310
   102    C    4  py     Val( 2p)     1.03844      -0.08514
   103    C    4  py     Ryd( 3p)     0.00327       0.94419
   104    C    4  py     Ryd( 4p)     0.00032       2.10769
   105    C    4  pz     Val( 2p)     0.99794      -0.12090
   106    C    4  pz     Ryd( 3p)     0.00186       0.73373
   107    C    4  pz     Ryd( 4p)     0.00038       1.47579
   108    C    4  dxy    Ryd( 3d)     0.00169       1.67429
   109    C    4  dxy    Ryd( 4d)     0.00046       3.21836
   110    C    4  dxz    Ryd( 3d)     0.00059       1.40502
   111    C    4  dxz    Ryd( 4d)     0.00014       2.85601
   112    C    4  dyz    Ryd( 3d)     0.00057       1.61736
   113    C    4  dyz    Ryd( 4d)     0.00017       3.20311
   114    C    4  dx2y2  Ryd( 3d)     0.00086       1.91021
   115    C    4  dx2y2  Ryd( 4d)     0.00069       3.42266
   116    C    4  dz2    Ryd( 3d)     0.00046       1.55701
   117    C    4  dz2    Ryd( 4d)     0.00017       3.10664
   118    C    4  f(0)   Ryd( 4f)     0.00013       3.43745
   119    C    4  f(C1)  Ryd( 4f)     0.00015       3.45567
   120    C    4  f(S1)  Ryd( 4f)     0.00016       3.45480
   121    C    4  f(C2)  Ryd( 4f)     0.00008       3.46437
   122    C    4  f(S2)  Ryd( 4f)     0.00012       3.68430
   123    C    4  f(C3)  Ryd( 4f)     0.00006       4.09332
   124    C    4  f(S3)  Ryd( 4f)     0.00006       3.80693
 
   125    C    5  S      Cor( 1S)     1.99924     -10.39788
   126    C    5  S      Val( 2S)     0.97665      -0.25006
   127    C    5  S      Ryd( 3S)     0.00094       1.06926
   128    C    5  S      Ryd( 4S)     0.00017       1.41084
   129    C    5  S      Ryd( 5S)     0.00000      21.58371
   130    C    5  px     Val( 2p)     1.07931      -0.07973
   131    C    5  px     Ryd( 3p)     0.00387       1.04901
   132    C    5  px     Ryd( 4p)     0.00026       2.16542
   133    C    5  py     Val( 2p)     1.11531      -0.09304
   134    C    5  py     Ryd( 3p)     0.00396       1.07151
   135    C    5  py     Ryd( 4p)     0.00019       1.98732
   136    C    5  pz     Val( 2p)     1.01403      -0.12280
   137    C    5  pz     Ryd( 3p)     0.00185       0.77064
   138    C    5  pz     Ryd( 4p)     0.00031       1.46190
   139    C    5  dxy    Ryd( 3d)     0.00108       1.80538
   140    C    5  dxy    Ryd( 4d)     0.00065       3.46202
   141    C    5  dxz    Ryd( 3d)     0.00034       1.45530
   142    C    5  dxz    Ryd( 4d)     0.00028       3.05306
   143    C    5  dyz    Ryd( 3d)     0.00069       1.46366
   144    C    5  dyz    Ryd( 4d)     0.00018       3.11279
   145    C    5  dx2y2  Ryd( 3d)     0.00174       1.64887
   146    C    5  dx2y2  Ryd( 4d)     0.00048       3.34873
   147    C    5  dz2    Ryd( 3d)     0.00055       1.46654
   148    C    5  dz2    Ryd( 4d)     0.00009       3.14824
   149    C    5  f(0)   Ryd( 4f)     0.00021       3.45276
   150    C    5  f(C1)  Ryd( 4f)     0.00012       3.53961
   151    C    5  f(S1)  Ryd( 4f)     0.00015       3.31666
   152    C    5  f(C2)  Ryd( 4f)     0.00009       3.57694
   153    C    5  f(S2)  Ryd( 4f)     0.00007       3.58790
   154    C    5  f(C3)  Ryd( 4f)     0.00006       4.11433
   155    C    5  f(S3)  Ryd( 4f)     0.00006       3.84836
 
   156    C    6  S      Cor( 1S)     1.99916     -10.39963
   157    C    6  S      Val( 2S)     0.96975      -0.24541
   158    C    6  S      Ryd( 3S)     0.00099       1.32488
   159    C    6  S      Ryd( 4S)     0.00021       1.48195
   160    C    6  S      Ryd( 5S)     0.00001      21.37639
   161    C    6  px     Val( 2p)     1.07692      -0.08474
   162    C    6  px     Ryd( 3p)     0.00307       1.13568
   163    C    6  px     Ryd( 4p)     0.00019       2.42631
   164    C    6  py     Val( 2p)     1.10864      -0.09105
   165    C    6  py     Ryd( 3p)     0.00366       1.01678
   166    C    6  py     Ryd( 4p)     0.00027       2.42144
   167    C    6  pz     Val( 2p)     1.02062      -0.12433
   168    C    6  pz     Ryd( 3p)     0.00175       0.72519
   169    C    6  pz     Ryd( 4p)     0.00034       1.64450
   170    C    6  dxy    Ryd( 3d)     0.00169       1.71572
   171    C    6  dxy    Ryd( 4d)     0.00065       3.46097
   172    C    6  dxz    Ryd( 3d)     0.00047       1.46044
   173    C    6  dxz    Ryd( 4d)     0.00030       3.09648
   174    C    6  dyz    Ryd( 3d)     0.00068       1.50232
   175    C    6  dyz    Ryd( 4d)     0.00016       3.15472
   176    C    6  dx2y2  Ryd( 3d)     0.00137       1.76574
   177    C    6  dx2y2  Ryd( 4d)     0.00041       3.42272
   178    C    6  dz2    Ryd( 3d)     0.00078       1.48009
   179    C    6  dz2    Ryd( 4d)     0.00005       3.19433
   180    C    6  f(0)   Ryd( 4f)     0.00025       3.48175
   181    C    6  f(C1)  Ryd( 4f)     0.00012       3.53804
   182    C    6  f(S1)  Ryd( 4f)     0.00021       3.33223
   183    C    6  f(C2)  Ryd( 4f)     0.00010       3.57400
   184    C    6  f(S2)  Ryd( 4f)     0.00009       3.62889
   185    C    6  f(C3)  Ryd( 4f)     0.00012       4.12103
   186    C    6  f(S3)  Ryd( 4f)     0.00006       3.90135
 
   187    H    7  S      Val( 1S)     0.78099       0.03911
   188    H    7  S      Ryd( 2S)     0.00035       1.01453
   189    H    7  S      Ryd( 3S)     0.00019       1.73808
   190    H    7  px     Ryd( 2p)     0.00013       2.83033
   191    H    7  py     Ryd( 2p)     0.00028       2.83139
   192    H    7  pz     Ryd( 2p)     0.00011       2.30481
 
   193    H    8  S      Val( 1S)     0.78148       0.03853
   194    H    8  S      Ryd( 2S)     0.00035       1.01277
   195    H    8  S      Ryd( 3S)     0.00019       1.73863
   196    H    8  px     Ryd( 2p)     0.00015       2.84388
   197    H    8  py     Ryd( 2p)     0.00027       2.82194
   198    H    8  pz     Ryd( 2p)     0.00010       2.29939
 
   199    H    9  S      Val( 1S)     0.78259       0.03614
   200    H    9  S      Ryd( 2S)     0.00052       1.36449
   201    H    9  S      Ryd( 3S)     0.00014       1.55019
   202    H    9  px     Ryd( 2p)     0.00019       2.85623
   203    H    9  py     Ryd( 2p)     0.00029       2.83723
   204    H    9  pz     Ryd( 2p)     0.00014       2.33323
 
   205    H   10  S      Val( 1S)     0.78411       0.03459
   206    H   10  S      Ryd( 2S)     0.00053       1.35493
   207    H   10  S      Ryd( 3S)     0.00014       1.55831
   208    H   10  px     Ryd( 2p)     0.00017       2.84382
   209    H   10  py     Ryd( 2p)     0.00031       2.84419
   210    H   10  pz     Ryd( 2p)     0.00014       2.33514
 
   211    C   11  S      Cor( 1S)     1.99871     -10.47678
   212    C   11  S      Val( 2S)     1.00337      -0.32582
   213    C   11  S      Ryd( 3S)     0.00310       1.59549
   214    C   11  S      Ryd( 4S)     0.00043       1.59830
   215    C   11  S      Ryd( 5S)     0.00000      21.17755
   216    C   11  px     Val( 2p)     0.98161      -0.17928
   217    C   11  px     Ryd( 3p)     0.00824       1.47577
   218    C   11  px     Ryd( 4p)     0.00046       2.39338
   219    C   11  py     Val( 2p)     1.09346      -0.14573
   220    C   11  py     Ryd( 3p)     0.00418       0.97773
   221    C   11  py     Ryd( 4p)     0.00028       2.70419
   222    C   11  pz     Val( 2p)     1.10788      -0.18764
   223    C   11  pz     Ryd( 3p)     0.00220       0.76129
   224    C   11  pz     Ryd( 4p)     0.00062       1.53693
   225    C   11  dxy    Ryd( 3d)     0.00260       1.44851
   226    C   11  dxy    Ryd( 4d)     0.00060       3.52924
   227    C   11  dxz    Ryd( 3d)     0.00154       1.17016
   228    C   11  dxz    Ryd( 4d)     0.00019       3.27910
   229    C   11  dyz    Ryd( 3d)     0.00054       1.19004
   230    C   11  dyz    Ryd( 4d)     0.00035       3.30489
   231    C   11  dx2y2  Ryd( 3d)     0.00210       1.92546
   232    C   11  dx2y2  Ryd( 4d)     0.00069       3.49375
   233    C   11  dz2    Ryd( 3d)     0.00138       1.51723
   234    C   11  dz2    Ryd( 4d)     0.00019       3.42266
   235    C   11  f(0)   Ryd( 4f)     0.00034       3.33859
   236    C   11  f(C1)  Ryd( 4f)     0.00023       3.39332
   237    C   11  f(S1)  Ryd( 4f)     0.00027       3.43926
   238    C   11  f(C2)  Ryd( 4f)     0.00008       3.40121
   239    C   11  f(S2)  Ryd( 4f)     0.00005       3.52334
   240    C   11  f(C3)  Ryd( 4f)     0.00010       4.22818
   241    C   11  f(S3)  Ryd( 4f)     0.00007       3.92705
 
   242    C   12  S      Cor( 1S)     1.99911     -10.42277
   243    C   12  S      Val( 2S)     0.97354      -0.27187
   244    C   12  S      Ryd( 3S)     0.00120       1.25108
   245    C   12  S      Ryd( 4S)     0.00023       1.48389
   246    C   12  S      Ryd( 5S)     0.00000      21.61581
   247    C   12  px     Val( 2p)     1.08567      -0.10903
   248    C   12  px     Ryd( 3p)     0.00378       1.11534
   249    C   12  px     Ryd( 4p)     0.00039       2.29678
   250    C   12  py     Val( 2p)     1.13995      -0.12151
   251    C   12  py     Ryd( 3p)     0.00394       1.06101
   252    C   12  py     Ryd( 4p)     0.00013       2.20049
   253    C   12  pz     Val( 2p)     0.98204      -0.14619
   254    C   12  pz     Ryd( 3p)     0.00131       0.70909
   255    C   12  pz     Ryd( 4p)     0.00045       1.47229
   256    C   12  dxy    Ryd( 3d)     0.00178       1.73911
   257    C   12  dxy    Ryd( 4d)     0.00077       3.54745
   258    C   12  dxz    Ryd( 3d)     0.00033       1.32583
   259    C   12  dxz    Ryd( 4d)     0.00026       3.07497
   260    C   12  dyz    Ryd( 3d)     0.00036       1.31889
   261    C   12  dyz    Ryd( 4d)     0.00014       3.06098
   262    C   12  dx2y2  Ryd( 3d)     0.00189       1.70105
   263    C   12  dx2y2  Ryd( 4d)     0.00039       3.50065
   264    C   12  dz2    Ryd( 3d)     0.00064       1.47772
   265    C   12  dz2    Ryd( 4d)     0.00009       3.30442
   266    C   12  f(0)   Ryd( 4f)     0.00026       3.35388
   267    C   12  f(C1)  Ryd( 4f)     0.00020       3.55000
   268    C   12  f(S1)  Ryd( 4f)     0.00023       3.35604
   269    C   12  f(C2)  Ryd( 4f)     0.00006       3.48068
   270    C   12  f(S2)  Ryd( 4f)     0.00005       3.46234
   271    C   12  f(C3)  Ryd( 4f)     0.00010       4.20932
   272    C   12  f(S3)  Ryd( 4f)     0.00007       3.91324
 
   273    C   13  S      Cor( 1S)     1.99916     -10.41369
   274    C   13  S      Val( 2S)     0.96932      -0.25707
   275    C   13  S      Ryd( 3S)     0.00112       1.30953
   276    C   13  S      Ryd( 4S)     0.00021       1.55676
   277    C   13  S      Ryd( 5S)     0.00001      21.33859
   278    C   13  px     Val( 2p)     1.06796      -0.09433
   279    C   13  px     Ryd( 3p)     0.00332       1.18568
   280    C   13  px     Ryd( 4p)     0.00023       2.33824
   281    C   13  py     Val( 2p)     1.12811      -0.10209
   282    C   13  py     Ryd( 3p)     0.00352       1.06258
   283    C   13  py     Ryd( 4p)     0.00029       2.56480
   284    C   13  pz     Val( 2p)     1.00633      -0.14110
   285    C   13  pz     Ryd( 3p)     0.00149       0.69387
   286    C   13  pz     Ryd( 4p)     0.00041       1.53178
   287    C   13  dxy    Ryd( 3d)     0.00205       1.73548
   288    C   13  dxy    Ryd( 4d)     0.00077       3.62080
   289    C   13  dxz    Ryd( 3d)     0.00029       1.31846
   290    C   13  dxz    Ryd( 4d)     0.00026       3.13144
   291    C   13  dyz    Ryd( 3d)     0.00054       1.31449
   292    C   13  dyz    Ryd( 4d)     0.00013       3.12020
   293    C   13  dx2y2  Ryd( 3d)     0.00175       1.73686
   294    C   13  dx2y2  Ryd( 4d)     0.00047       3.52044
   295    C   13  dz2    Ryd( 3d)     0.00087       1.43863
   296    C   13  dz2    Ryd( 4d)     0.00006       3.36747
   297    C   13  f(0)   Ryd( 4f)     0.00028       3.38633
   298    C   13  f(C1)  Ryd( 4f)     0.00014       3.55834
   299    C   13  f(S1)  Ryd( 4f)     0.00024       3.41462
   300    C   13  f(C2)  Ryd( 4f)     0.00005       3.50746
   301    C   13  f(S2)  Ryd( 4f)     0.00007       3.49719
   302    C   13  f(C3)  Ryd( 4f)     0.00013       4.23011
   303    C   13  f(S3)  Ryd( 4f)     0.00006       3.95924
 
   304    C   14  S      Cor( 1S)     1.99911     -10.42173
   305    C   14  S      Val( 2S)     0.91406      -0.23155
   306    C   14  S      Ryd( 3S)     0.00085       1.42965
   307    C   14  S      Ryd( 4S)     0.00018       1.68491
   308    C   14  S      Ryd( 5S)     0.00000      21.33600
   309    C   14  px     Val( 2p)     1.04578      -0.08327
   310    C   14  px     Ryd( 3p)     0.00561       1.29252
   311    C   14  px     Ryd( 4p)     0.00051       1.83252
   312    C   14  py     Val( 2p)     1.06287      -0.09689
   313    C   14  py     Ryd( 3p)     0.00424       1.18086
   314    C   14  py     Ryd( 4p)     0.00066       1.46385
   315    C   14  pz     Val( 2p)     0.97735      -0.13371
   316    C   14  pz     Ryd( 3p)     0.00183       0.82455
   317    C   14  pz     Ryd( 4p)     0.00018       1.28020
   318    C   14  dxy    Ryd( 3d)     0.00163       2.28946
   319    C   14  dxy    Ryd( 4d)     0.00050       3.50067
   320    C   14  dxz    Ryd( 3d)     0.00043       1.28816
   321    C   14  dxz    Ryd( 4d)     0.00026       3.35448
   322    C   14  dyz    Ryd( 3d)     0.00016       1.37797
   323    C   14  dyz    Ryd( 4d)     0.00034       3.36579
   324    C   14  dx2y2  Ryd( 3d)     0.00131       2.37401
   325    C   14  dx2y2  Ryd( 4d)     0.00063       3.50248
   326    C   14  dz2    Ryd( 3d)     0.00042       1.74052
   327    C   14  dz2    Ryd( 4d)     0.00022       3.55873
   328    C   14  f(0)   Ryd( 4f)     0.00011       3.55346
   329    C   14  f(C1)  Ryd( 4f)     0.00009       3.69897
   330    C   14  f(S1)  Ryd( 4f)     0.00008       3.58627
   331    C   14  f(C2)  Ryd( 4f)     0.00004       3.61855
   332    C   14  f(S2)  Ryd( 4f)     0.00004       3.67791
   333    C   14  f(C3)  Ryd( 4f)     0.00009       4.32105
   334    C   14  f(S3)  Ryd( 4f)     0.00007       4.25351
 
   335    C   15  S      Cor( 1S)     1.99915     -10.41464
   336    C   15  S      Val( 2S)     0.97053      -0.25770
   337    C   15  S      Ryd( 3S)     0.00105       1.31023
   338    C   15  S      Ryd( 4S)     0.00021       1.56198
   339    C   15  S      Ryd( 5S)     0.00001      21.34211
   340    C   15  px     Val( 2p)     1.06265      -0.09380
   341    C   15  px     Ryd( 3p)     0.00325       1.17571
   342    C   15  px     Ryd( 4p)     0.00022       2.36308
   343    C   15  py     Val( 2p)     1.13291      -0.10253
   344    C   15  py     Ryd( 3p)     0.00338       1.07258
   345    C   15  py     Ryd( 4p)     0.00030       2.54626
   346    C   15  pz     Val( 2p)     1.00241      -0.14108
   347    C   15  pz     Ryd( 3p)     0.00136       0.69060
   348    C   15  pz     Ryd( 4p)     0.00041       1.54832
   349    C   15  dxy    Ryd( 3d)     0.00220       1.71014
   350    C   15  dxy    Ryd( 4d)     0.00077       3.60369
   351    C   15  dxz    Ryd( 3d)     0.00031       1.32595
   352    C   15  dxz    Ryd( 4d)     0.00025       3.13946
   353    C   15  dyz    Ryd( 3d)     0.00059       1.30379
   354    C   15  dyz    Ryd( 4d)     0.00012       3.11136
   355    C   15  dx2y2  Ryd( 3d)     0.00167       1.76204
   356    C   15  dx2y2  Ryd( 4d)     0.00048       3.53628
   357    C   15  dz2    Ryd( 3d)     0.00083       1.44853
   358    C   15  dz2    Ryd( 4d)     0.00007       3.36839
   359    C   15  f(0)   Ryd( 4f)     0.00026       3.38462
   360    C   15  f(C1)  Ryd( 4f)     0.00016       3.56721
   361    C   15  f(S1)  Ryd( 4f)     0.00025       3.41532
   362    C   15  f(C2)  Ryd( 4f)     0.00006       3.50187
   363    C   15  f(S2)  Ryd( 4f)     0.00006       3.49706
   364    C   15  f(C3)  Ryd( 4f)     0.00012       4.22816
   365    C   15  f(S3)  Ryd( 4f)     0.00007       3.95538
 
   366    C   16  S      Cor( 1S)     1.99909     -10.42309
   367    C   16  S      Val( 2S)     0.97603      -0.27124
   368    C   16  S      Ryd( 3S)     0.00132       1.24104
   369    C   16  S      Ryd( 4S)     0.00024       1.44217
   370    C   16  S      Ryd( 5S)     0.00000      21.59658
   371    C   16  px     Val( 2p)     1.08284      -0.10496
[...]
 1157,0.00129921,0.00051748,-0.00020787,-0.00002970,0.00003071,-0.00016
 835,-0.00002993,-0.00001930,0.00189816,0.00423049,0.00263170,-0.020779
 79,0.10742495,-0.00026551,-0.00022045,0.00010312,0.00027719,-0.0001387
 1,-0.00002171,0.00000070,0.00002029,0.00011265,0.00021294,-0.00000975,
 -0.00001551,0.00005359,-0.00002617,-0.00009740,0.00017948,0.00022117,-
 0.00028746,0.00003697,0.00001332,-0.00004060,0.00008527,-0.00001755,-0
 .00000022,-0.00003972,-0.00002283,0.00010800,-0.00006349,-0.00000143,-
 0.00003113,-0.01188752,0.01400853,-0.02509097,0.00317953,0.00234933,-0
 .00214399,0.00059497,-0.00036418,0.00091431,-0.00049245,0.00023942,-0.
 00036472,0.00097662,0.00211739,0.00000208,0.00658748,-0.00514428,-0.00
 163270,0.00041747,-0.00006737,-0.00015543,0.00085136,0.00005790,-0.000
 03195,-0.00715945,0.00288175,-0.00361854,0.05886358,-0.05531768,0.2755
 0368,0.00026923,0.00000177,-0.00008130,-0.00019507,0.00007529,0.000014
 84,-0.00002618,-0.00000737,-0.00005378,-0.00012725,-0.00000535,0.00004
 156,0.00001180,0.00000415,0.00006892,-0.00014472,-0.00008190,0.0000896
 7,-0.00003236,-0.00001454,0.00003596,-0.00004504,0.00000995,-0.0000091
 4,0.00003285,0.00001497,-0.00007239,0.00007383,-0.00001458,0.00003832,
 -0.00091397,-0.00028400,0.00144817,0.00009895,-0.00016027,0.00020158,-
 0.00016287,-0.00021000,0.00011927,0.00022507,-0.00004946,-0.00005613,-
 0.00036487,0.00003978,0.00008041,-0.00022650,0.00051842,-0.00014220,-0
 .00010260,0.00003319,0.00000862,-0.00011487,-0.00005005,0.00004333,-0.
 00527054,-0.00459497,0.01868225,-0.05413599,0.00909579,-0.01892964,0.3
 1174367,-0.00000196,0.00006229,-0.00003763,0.00000545,0.00000901,0.000
 00492,0.00000155,0.00000771,-0.00000318,-0.00000652,0.00000452,0.00000
 064,-0.00000276,0.00000794,0.00000451,-0.00001597,0.00000065,0.0000164
 9,0.00000016,-0.00000521,-0.00000109,-0.00000467,-0.00000427,-0.000001
 70,0.00000084,-0.00001343,-0.00000785,0.00000237,-0.00001482,-0.000002
 61,-0.00028577,0.00359183,-0.00015895,-0.00016356,-0.00057036,0.000589
 12,-0.00044489,0.00020720,-0.00004706,-0.00004867,0.00024699,-0.000142
 23,0.00027806,0.00025260,-0.00029835,0.00052188,-0.00050662,0.00033454
 ,-0.00006790,-0.00001340,0.00000970,0.00005140,-0.00001170,-0.00002950
 ,-0.01117049,0.00682556,0.01743956,0.01562687,0.00880190,0.00580218,0.
 00933924,0.11003191,-0.00008179,-0.00002666,0.00005322,0.00003632,-0.0
 0001143,-0.00001199,0.00001944,-0.00000024,0.00003160,0.00004139,0.000
 00426,-0.00001952,-0.00000399,-0.00000464,-0.00000661,0.00006763,0.000
 04433,-0.00005398,0.00000593,0.00000244,-0.00001009,0.00002087,-0.0000
 0541,0.00000164,-0.00001264,-0.00001453,0.00002824,-0.00002103,-0.0000
 0421,-0.00001136,0.00144815,-0.00015389,0.00281018,0.00018676,0.000587
 23,-0.00004645,0.00027612,-0.00012548,-0.00011051,-0.00005601,-0.00014
 465,0.00005777,-0.00007605,-0.00023005,0.00004614,-0.00012735,0.000336
 55,0.00021534,0.00005681,-0.00002312,-0.00004836,-0.00000484,0.0000021
 9,-0.00003776,0.04159529,0.01633310,-0.05180131,-0.04184823,0.00703923
 ,-0.00490238,-0.06883668,-0.00322170,0.13306731,-0.00141537,-0.0000352
 2,0.00026940,0.00146190,-0.00075104,0.00014916,0.00021891,0.00017961,0
 .00037053,0.00091458,0.00002735,-0.00026635,0.00000436,-0.00013247,-0.
 00056583,0.00081421,0.00077621,-0.00084027,0.00023695,0.00010068,-0.00
 022300,0.00029871,-0.00006925,0.00003562,-0.00018717,-0.00011480,0.000
 34831,-0.00039048,0.00013432,-0.00016762,-0.13485463,-0.00132861,0.027
 28960,-0.02177795,0.00554305,0.00305165,0.00335065,0.00459054,-0.00241
 263,-0.00138776,0.00074494,0.00001946,0.00692125,-0.00116888,-0.000117
 63,-0.01127346,-0.01115073,0.00959316,0.00072644,-0.00043229,0.0001359
 7,0.00097851,0.00057251,-0.00042822,-0.10932997,0.01673772,-0.05462017
 ,-0.07955905,0.00755903,-0.01943385,-0.20030066,-0.00592150,0.04379207
 ,0.70450982,0.00002469,-0.00073681,0.00017721,-0.00002931,-0.00006744,
 -0.00001490,-0.00005004,-0.00005183,0.00000086,0.00005730,-0.00005662,
 0.00002398,0.00004277,-0.00006148,-0.00007735,0.00010347,0.00001069,-0
 .00011610,-0.00000201,0.00004109,0.00001175,0.00003444,0.00003478,0.00
 001223,-0.00000523,0.00013281,0.00002885,-0.00002439,0.00014386,0.0000
 0832,-0.00130708,-0.06211502,0.00730740,0.01202388,0.00911329,-0.00984
 851,0.00683867,-0.00265735,0.00185243,0.00077132,-0.00378968,0.0019346
 8,-0.00351712,-0.00340960,0.00554259,-0.01761723,0.00694852,0.00071652
 ,0.00110405,0.00022078,-0.00022849,-0.00096190,0.00017110,0.00045300,0
 .01751674,-0.08034207,0.03160836,0.00601775,-0.08135939,0.03760932,-0.
 00593958,-0.07205139,0.00203472,-0.00274595,0.69317402,0.00027748,0.00
 000146,-0.00069385,-0.00011112,0.00013843,-0.00005179,-0.00027697,-0.0
 0001783,-0.00025799,-0.00026227,-0.00006406,0.00022792,0.00007433,0.00
 010136,-0.00003376,-0.00057328,-0.00041330,0.00051773,-0.00003517,-0.0
 0001623,0.00005480,-0.00015206,0.00003721,-0.00000067,0.00007661,0.000
 13429,-0.00014750,0.00009741,0.00004720,0.00004472,0.02728928,0.007242
 98,-0.06309177,-0.00086135,-0.00784564,0.00330323,-0.00365404,0.002725
 49,0.00384361,0.00002249,0.00185856,-0.00104117,0.00111106,0.00496445,
 0.00102441,0.01350973,-0.00133047,-0.00503721,-0.00068226,0.00025384,0
 .00059302,0.00039054,-0.00003486,0.00039041,-0.05663510,0.03303333,-0.
 17092974,-0.01752271,0.03842633,-0.19966039,0.04379011,0.00209144,-0.0
 8662156,-0.00782869,-0.00995170,0.68271219,0.00032836,0.00003843,-0.00
 012408,-0.00027902,0.00010465,-0.00001754,-0.00001674,-0.00002465,-0.0
 0004941,-0.00017342,0.00000133,0.00003622,-0.00000635,0.00003477,0.000
 11789,-0.00019558,-0.00013791,0.00014154,-0.00004429,-0.00001593,0.000
 04260,-0.00005837,0.00001363,-0.00000548,0.00003453,0.00001032,-0.0000
 5971,0.00008506,-0.00004099,0.00005195,-0.00619703,0.02649936,0.010004
 53,-0.00008242,-0.00238447,0.00384759,-0.00238453,-0.00067765,-0.00028
 717,-0.00015577,0.00138575,-0.00070854,0.00107584,0.00016203,-0.000349
 05,-0.00305893,0.00129797,0.00248170,-0.00046332,-0.00010596,-0.000046
 99,-0.00009742,-0.00009195,0.00007559,0.00562630,-0.01324774,-0.017105
 33,0.00683403,0.01015197,-0.00295371,-0.02919009,-0.05112062,-0.001424
 67,-0.07743572,0.01601008,0.00837047,0.09807904,-0.00027203,0.00008606
 ,-0.00015836,0.00028177,-0.00008170,0.00002440,0.00000979,0.00005187,0
 .00004188,0.00015266,0.00000286,-0.00001765,0.00001418,0.00000234,-0.0
 0010908,0.00007826,0.00015514,-0.00007969,0.00003706,-0.00000161,-0.00
 004089,0.00004230,-0.00002493,-0.00000008,-0.00003229,-0.00004709,0.00
 002878,-0.00006919,-0.00001973,-0.00005186,-0.00536203,-0.02063073,-0.
 00286087,0.00403139,0.00251839,-0.00470454,0.00072861,-0.00052050,0.00
 126027,-0.00044333,-0.00009640,-0.00018212,0.00079439,0.00185525,0.000
 10311,0.00262620,-0.00244819,0.00191010,0.00064703,0.00017167,-0.00008
 237,0.00042470,0.00001921,-0.00017679,-0.00301259,-0.00526333,-0.01457
 760,0.00982091,-0.03749389,0.01149933,-0.02951043,-0.03201525,-0.00284
 316,0.01336088,-0.19620587,-0.04442793,0.00935616,0.29417195,-0.000179
 70,-0.00003825,0.00011670,0.00012532,-0.00003302,-0.00001068,0.0000172
 1,0.00001100,0.00003757,0.00009289,0.00000314,-0.00002480,0.00000562,-
 0.00000866,-0.00003377,0.00013818,0.00008958,-0.00009589,0.00001937,0.
 00000316,-0.00002309,0.00003894,-0.00001206,0.00000042,-0.00002266,-0.
 00001962,0.00004173,-0.00004611,-0.00000588,-0.00003595,0.00183945,-0.
 01721479,0.00267847,0.00233006,0.00206580,-0.00301922,0.00115097,-0.00
 073039,0.00057258,0.00008051,-0.00048191,0.00018555,-0.00037376,-0.000
 42883,0.00014277,0.00261559,0.00056371,-0.00175972,0.00042005,0.000101
 12,-0.00005995,0.00006862,0.00002643,-0.00011629,-0.01049301,-0.035142
 71,-0.03447855,-0.00805471,0.03572171,-0.00249443,0.00520659,0.0048646
 3,0.01104265,0.00828741,-0.04402133,-0.08711621,-0.00212475,0.06007129
 ,0.11086151,0.00038881,-0.00002676,-0.00006823,-0.00029499,0.00012615,
 0.00001601,-0.00006670,-0.00003630,-0.00007931,-0.00016830,-0.00001551
 ,0.00007668,0.00001571,0.00002151,0.00006081,-0.00020422,-0.00011796,0
 .00016792,-0.00004814,-0.00002133,0.00004355,-0.00006262,0.00000971,-0
 .00000806,0.00003234,0.00003602,-0.00010007,0.00007432,-0.00001099,0.0
 0003175,-0.00630814,-0.03027694,-0.00167821,-0.00489204,-0.00087951,-0
 .00023137,0.00116120,-0.00043607,-0.00043091,0.00036804,-0.00137152,0.
 00063278,-0.00171297,-0.00006276,0.00191357,-0.00388245,0.00269824,-0.
 00277054,-0.00014360,0.00007655,-0.00003847,-0.00045415,0.00008371,0.0
 0035547,0.00728197,0.01770708,-0.00640436,0.00537434,-0.00978399,-0.01
 173767,-0.02145975,0.04361373,0.02514450,-0.08346935,-0.03008483,-0.00
 542683,0.00889829,-0.00285818,-0.00225979,0.10137969,0.00014451,0.0001
 0220,-0.00029674,-0.00014839,0.00015710,-0.00000987,-0.00008436,-0.000
 00536,-0.00008559,-0.00014651,-0.00001178,0.00008621,0.00001493,0.0000
 5420,0.00004574,-0.00021934,-0.00011534,0.00020486,-0.00003549,-0.0000
 3017,0.00002885,-0.00005978,-0.00000487,-0.00001053,0.00002757,-0.0000
 1158,-0.00009269,0.00005331,-0.00004420,0.00000447,0.00348883,-0.02285
 250,-0.00641991,-0.00110697,-0.00271792,0.00302759,-0.00061378,0.00176
 227,0.00058057,0.00028317,-0.00019147,-0.00035939,0.00007559,-0.000523
 40,0.00159530,-0.00655468,0.00227217,-0.00146492,-0.00045690,-0.000013
 64,0.00011750,-0.00061168,0.00012223,0.00036517,0.00306949,-0.03745957
 ,0.01364643,-0.00518245,-0.00520138,-0.01359152,0.02197714,-0.02526697
 ,-0.01902595,-0.02823356,-0.20027824,-0.03100586,0.00211609,-0.0051778
 7,-0.00395058,0.01324936,0.29455780,-0.00003146,-0.00000825,0.00004016
 ,0.00001144,-0.00000777,0.00000156,0.00002361,0.00001544,0.00003427,0.
 00002276,0.00000570,-0.00001529,-0.00000201,-0.00000510,0.00000280,0.0
 0003530,0.00003981,-0.00005185,0.00000109,-0.00000174,-0.00000458,0.00
 001290,-0.00000616,-0.00000150,-0.00000699,-0.00003113,0.00000861,-0.0
 0000236,-0.00001080,-0.00000095,0.00674712,0.00234418,0.00499945,-0.00
 021575,0.00114540,0.00034146,-0.00034433,-0.00022238,0.00015072,-0.000
 18016,0.00045339,-0.00024330,0.00068501,-0.00095094,-0.00009593,-0.001
 63890,0.00009145,0.00102730,-0.00003382,-0.00003642,-0.00003719,-0.000
 10386,0.00001247,-0.00001960,-0.00333595,0.03337480,-0.00297746,-0.016
 33520,-0.03659315,-0.03428246,0.01850985,-0.02665979,-0.00343307,-0.00
 545283,-0.02906407,-0.07704015,-0.00067663,-0.00218344,0.00465329,0.00
 266657,0.05902597,0.10720982,0.00047401,0.00016711,-0.00068841,-0.0016
 0552,0.00209189,-0.00351062,-0.01689089,-0.00210798,0.00998021,-0.3147
 5704,-0.01014892,0.08742064,-0.00172521,0.00055030,-0.00029949,0.00180
 347,0.00007731,0.00114856,0.00081557,-0.00027738,-0.00032272,0.0005945
 5,-0.00047062,0.00018828,-0.00089798,-0.00009563,0.00051393,-0.0001925
 7,0.00004739,-0.00010372,-0.00001416,0.00000125,-0.00000015,0.00000144
 ,-0.00002845,-0.00000565,-0.00003811,0.00000164,0.00001330,0.00003516,
 -0.00009659,0.00000180,-0.00000393,0.00004069,0.00000939,0.00000577,-0
 .00000348,0.00001908,0.00001023,0.00001565,0.00000998,0.00001910,-0.00
 004846,-0.00000988,-0.00003950,0.00000467,-0.00000941,-0.00002490,-0.0
 0000937,0.00003528,-0.00003222,-0.00000190,0.00001126,0.00016668,0.000
 01077,-0.00005837,-0.00003240,0.00002322,0.00001913,-0.00003545,-0.000
 02831,0.00000405,0.33236866,0.00007903,-0.00092701,0.00000908,0.001958
 06,0.00595798,0.00364783,0.00914189,0.00388114,-0.00365201,-0.01017967
 ,-0.04161038,0.01128649,-0.01074045,0.00305259,0.00288442,0.00031749,0
 .00578171,0.00447582,-0.00059216,-0.00334095,-0.00153360,-0.00012591,-
 0.00332787,-0.00167232,0.00043111,0.00008229,-0.00015988,-0.00050069,0
 .00004431,0.00014009,-0.00004540,0.00020865,-0.00010304,0.00024012,-0.
 00011095,-0.00001353,-0.00025678,-0.00004767,0.00010595,-0.00011535,-0
 .00077438,-0.00044786,0.00026906,-0.00002162,-0.00007285,-0.00018806,-
 0.00012961,0.00013357,0.00001313,0.00000887,0.00003758,0.00001285,0.00
 000588,0.00003690,-0.00000410,-0.00000432,-0.00000039,0.00000104,-0.00
 000476,0.00000015,-0.00000190,-0.00000481,-0.00000132,0.00001168,0.000
 04785,0.00001541,-0.00000829,-0.00000696,-0.00000109,0.00000319,-0.000
 00880,-0.00000574,0.01028635,0.03126160,-0.00070037,0.00026758,-0.0013
 0348,-0.00300876,0.00345095,-0.00074818,-0.01876377,-0.00108187,0.0103
 3326,0.08741640,0.01137750,-0.08683636,0.02843898,0.00043345,-0.004003
 92,0.00066112,0.00436057,-0.00398086,0.00045789,-0.00165383,0.00019185
 ,-0.00058825,-0.00163987,0.00039977,-0.00096472,-0.00001379,0.00031823
 ,0.00137203,0.00005663,-0.00034920,-0.00000648,0.00003388,-0.00002849,
 0.00004654,-0.00005746,0.00002127,-0.00007522,0.00006314,0.00004177,-0
 .00000074,-0.00039272,-0.00002540,0.00009383,0.00005820,-0.00001847,-0
 .00002171,-0.00006906,0.00003561,-0.00001301,-0.00006083,0.00002203,0.
 00002109,-0.00003727,0.00001616,0.00001709,-0.00000485,0.00000833,0.00
 000901,-0.00000021,-0.00000583,0.00001126,-0.00000132,-0.00000327,-0.0
 0005825,0.00001271,0.00001777,0.00001072,-0.00001218,-0.00000687,0.000
 01247,0.00000541,-0.00000198,-0.09436578,-0.01509029,0.08591547,0.0003
 0084,-0.00106411,0.00063152,-0.00039952,-0.00000327,0.00001629,0.00001
 893,0.00003172,0.00010913,-0.00002826,-0.00000568,0.00000187,-0.000019
 85,0.00004094,-0.00001229,-0.00002049,0.00002636,0.00005764,-0.0000348
 3,-0.00000050,0.00001517,-0.00002225,-0.00000250,0.00000191,0.00000572
 ,-0.00002302,-0.00000594,-0.00003319,-0.00003815,-0.00002956,0.0102123
 9,0.01525546,-0.01077874,-0.08370362,-0.06766951,0.05267948,-0.0038749
 3,-0.02375701,0.01616631,-0.00447154,0.00118493,0.00294788,-0.00116761
 ,0.00048839,-0.00016951,-0.00235130,0.00401010,0.00018594,0.00065293,-
 0.00035087,-0.00137313,-0.00000598,-0.00018074,-0.00016867,0.00007411,
 -0.00048104,0.00045021,-0.00105331,-0.00001708,0.00119483,0.00030813,-
 0.00033097,-0.00000100,-0.00017699,0.00412840,-0.00215560,0.00015276,-
 0.00080926,-0.00000867,-0.00167050,-0.00149443,-0.00027562,-0.00000388
 ,-0.00000617,-0.00000530,0.08680660,0.00005756,0.00006036,-0.00010968,
 -0.00000376,-0.00005922,-0.00002910,-0.00002414,0.00002074,-0.00001266
 ,-0.00000227,-0.00000226,0.00000669,0.00000014,0.00001850,0.00001579,-
 0.00006470,-0.00004441,-0.00000650,0.00000203,0.00000570,0.00000238,-0
 .00000304,0.00000204,0.00000111,-0.00001335,-0.00000682,-0.00000976,-0
 .00003359,-0.00000979,0.00002620,-0.00817111,-0.01276233,0.01201749,-0
 .06545971,-0.23364375,0.13151180,0.00127170,0.00396286,0.00002834,0.00
 141715,0.00301404,0.00224975,0.00045141,0.00020896,-0.00072853,0.00431
 852,-0.00076159,0.00239512,-0.00082428,-0.00045521,-0.00198787,-0.0001
 7463,-0.00022271,-0.00033596,-0.00021361,0.00025799,-0.00036593,-0.000
 98281,0.00132040,-0.00144021,-0.00036700,0.00019010,-0.00017378,0.0001
 6108,-0.00330873,0.00217319,0.00021022,0.00017437,-0.00030508,-0.00127
 455,0.00067950,-0.00060612,-0.00000068,-0.00000653,-0.00000244,0.07016
 856,0.24182336,-0.00014342,0.00026989,-0.00030263,0.00009379,-0.000092
 93,0.00004324,-0.00003181,0.00003900,-0.00004995,0.00000675,0.00000214
 ,-0.00000375,0.00000138,0.00001379,0.00003577,-0.00006307,-0.00003056,
 -0.00007559,0.00001554,0.00000581,-0.00000123,0.00000343,0.00000128,0.
 00000079,-0.00002933,-0.00000230,-0.00002406,-0.00005006,-0.00002317,0
 .00004279,0.00258105,0.00536035,-0.00010729,0.05175829,0.13187462,-0.1
 3125811,0.00186672,0.00753627,-0.00020512,0.00308783,0.00240719,0.0053
 2246,0.00009132,-0.00077101,-0.00037984,-0.00034436,0.00238543,0.00453
 919,-0.00115414,-0.00203291,-0.00279440,-0.00018463,-0.00034002,-0.000
 65852,-0.00051176,-0.00002665,-0.00025189,0.00094687,-0.00059266,-0.00
 168511,0.00001476,-0.00018376,-0.00020704,0.00010749,0.00089944,-0.000
 05573,0.00020884,-0.00023481,-0.00024093,0.00038943,-0.00172109,-0.000
 24393,-0.00000004,-0.00000866,-0.00000296,-0.05894494,-0.14505379,0.12
 829393,-0.00023307,0.00100307,-0.00070617,-0.00003913,-0.00003675,-0.0
 0008341,0.00000750,-0.00002585,0.00003325,-0.00002408,0.00000366,0.000
 01296,-0.00004462,-0.00000357,-0.00011127,-0.00028003,-0.00007930,0.00
 023820,-0.00001658,0.00000091,0.00001129,-0.00003714,0.00000005,0.0000
 1226,0.00002860,0.00001817,0.00003695,0.00000977,0.00001875,-0.0000197
 4,0.00974970,-0.00699021,0.00214276,0.00059591,-0.00167820,0.00265644,
 -0.00069140,-0.00094763,0.00051792,-0.00374984,-0.00013505,0.00381117,
 -0.01297089,0.02221036,-0.00706610,-0.17451276,0.14020211,-0.03787680,
 -0.00006905,-0.00004508,-0.00024866,0.00070599,-0.00083838,-0.00108729
 ,-0.00226494,-0.00063113,-0.00057169,-0.00004155,0.00035623,-0.0005842
 4,0.00008204,0.00014662,-0.00020828,0.00095557,-0.00239963,0.00122632,
 -0.00124279,-0.00006017,0.00110726,-0.00010130,0.00047663,-0.00008385,
 -0.00000088,-0.00000006,0.00000393,0.00050562,-0.00044514,0.00028410,0
 .18367938,-0.00013889,0.00014799,-0.00011303,0.00004665,-0.00004212,-0
 .00005124,0.00000811,0.00001570,0.00001560,0.00000384,-0.00000153,0.00
 000520,0.00000529,0.00002059,-0.00003387,-0.00003785,-0.00006456,-0.00
 000534,0.00000126,0.00000239,0.00000017,-0.00000405,0.00000545,0.00000
 427,0.00004406,-0.00000373,0.00000381,0.00000589,-0.00000401,-0.000016
 89,0.01600616,-0.01267170,0.00437227,-0.00193136,-0.00131971,0.0046849
 3,-0.00088508,0.00007970,-0.00023399,-0.00041109,0.00286697,0.00292375
 ,-0.00260044,0.00592839,0.00012972,0.13820230,-0.21441666,0.05652113,-
 0.00004791,-0.00021044,-0.00038383,-0.00042959,-0.00045966,-0.00210816
 ,-0.00038812,0.00132238,-0.00174365,-0.00008947,0.00030269,-0.00045794
 ,0.00018170,0.00023804,-0.00037385,0.00158470,-0.00354725,0.00186294,0
 .00046339,0.00082494,-0.00112737,-0.00036807,0.00020761,-0.00011563,-0
 .00000047,-0.00000625,-0.00000204,0.00089946,-0.00045557,0.00031912,-0
 .15012041,0.22124036,0.00006601,-0.00043299,0.00014360,0.00003628,-0.0
 0000476,-0.00005921,0.00001864,0.00003774,0.00001122,0.00000857,-0.000
 00084,-0.00000861,0.00002328,0.00005252,0.00001372,0.00016625,-0.00006
 178,-0.00007088,0.00000976,0.00000051,-0.00000524,0.00001169,0.0000054
 2,0.00000134,0.00006157,-0.00003622,-0.00002506,0.00000322,-0.00001496
 ,-0.00003091,-0.01127625,0.01229112,0.00026495,0.00319459,0.00453288,0
 .00215045,0.00026045,-0.00026660,-0.00072680,0.00366539,0.00289480,0.0
 0474734,0.00726326,-0.00801564,0.00692551,-0.03692658,0.05553684,-0.05
 967036,-0.00023228,-0.00038940,-0.00060771,-0.00131508,-0.00187330,-0.
 00284267,-0.00042225,-0.00046636,-0.00047669,0.00035365,-0.00027359,-0
 .00018089,-0.00022420,-0.00036102,-0.00002884,-0.00103450,0.00308808,-
 0.00095033,0.00054344,-0.00219574,-0.00081686,-0.00027768,-0.00069943,
 -0.00002020,-0.00000064,-0.00001073,-0.00000625,-0.00052924,0.00073954
 ,0.00026990,0.03655265,-0.06407606,0.05199950\\0.00000424,0.00000206,-
 0.00000308,-0.00000057,-0.00000160,-0.00000082,0.00000206,-0.00000096,
 -0.00000165,-0.00000172,-0.00000008,0.00000175,0.00000416,0.00000150,-
 0.00000130,-0.00000125,0.00000044,0.00000164,-0.00000017,-0.00000242,-
 0.00000071,0.00000038,0.00000241,0.00000073,-0.00000015,-0.00000207,-0
 .00000025,0.00000002,0.00000190,0.00000013,-0.00000167,0.00000097,-0.0
 0000263,0.00000277,0.00000644,-0.00000279,-0.00000219,-0.00000822,0.00
 000416,-0.00000301,0.00000249,0.00000084,0.00000277,0.00000401,-0.0000
 0197,-0.00000619,-0.00001671,0.00000446,0.00000054,0.00000187,0.000001
 72,-0.00000078,-0.00000172,-0.00000180,0.00000254,-0.00000371,0.000012
 69,-0.00000044,0.00000320,0.00000200,0.00000938,0.00000523,-0.00000812
 ,-0.00001360,-0.00000812,-0.00000156,-0.00000428,0.00000050,-0.0000025
 2,0.00000858,0.00001117,-0.00000019,0.00000005,-0.00000020,0.00000007,
 0.00000128,-0.00000125,0.00000176,-0.00000274,0.00000287,-0.00000257\\
 \@
 The archive entry for this job was punched.


 BRING ME INTO THE COMPANY OF THOSE WHO SEEK TRUTH,
 AND DELIVER ME FROM THOSE WHO HAVE FOUND IT.
 Job cpu time:       1 days 16 hours 10 minutes 35.4 seconds.
 Elapsed time:       0 days  1 hours 16 minutes 12.0 seconds.
 File lengths (MBytes):  RWF=    855 Int=      0 D2E=      0 Chk=     31 Scr=      1
 Normal termination of Gaussian 16 at Wed Nov  1 03:01:40 2023.
