 Entering Gaussian System, Link 0=g16
 Input=ph4tbu_idp_1_1_m062x.com
 Output=ph4tbu_idp_1_1_m062x.log
 Initial command:
 /arc/software/Gaussian/g16.c01/l1.exe "/tmp/Gau-100900.inp" -scrdir="/tmp/"
 Entering Link 1 = /arc/software/Gaussian/g16.c01/l1.exe PID=    100902.
  
 Copyright (c) 1988-2019, Gaussian, Inc.  All Rights Reserved.
  
 This is part of the Gaussian(R) 16 program.  It is based on
 the Gaussian(R) 09 system (copyright 2009, Gaussian, Inc.),
 the Gaussian(R) 03 system (copyright 2003, Gaussian, Inc.),
 the Gaussian(R) 98 system (copyright 1998, Gaussian, Inc.),
 the Gaussian(R) 94 system (copyright 1995, Gaussian, Inc.),
 the Gaussian 92(TM) system (copyright 1992, Gaussian, Inc.),
 the Gaussian 90(TM) system (copyright 1990, Gaussian, Inc.),
 the Gaussian 88(TM) system (copyright 1988, Gaussian, Inc.),
 the Gaussian 86(TM) system (copyright 1986, Carnegie Mellon
 University), and the Gaussian 82(TM) system (copyright 1983,
 Carnegie Mellon University). Gaussian is a federally registered
 trademark of Gaussian, Inc.
  
 This software contains proprietary and confidential information,
 including trade secrets, belonging to Gaussian, Inc.
  
 This software is provided under written license and may be
 used, copied, transmitted, or stored only in accord with that
 written license.
  
 The following legend is applicable only to US Government
 contracts under FAR:
  
                    RESTRICTED RIGHTS LEGEND
  
 Use, reproduction and disclosure by the US Government is
 subject to restrictions as set forth in subparagraphs (a)
 and (c) of the Commercial Computer Software - Restricted
 Rights clause in FAR 52.227-19.
  
 Gaussian, Inc.
 340 Quinnipiac St., Bldg. 40, Wallingford CT 06492
  
  
 ---------------------------------------------------------------
 Warning -- This program may not be used in any manner that
 competes with the business of Gaussian, Inc. or will provide
 assistance to any competitor of Gaussian, Inc.  The licensee
 of this program is prohibited from giving any competitor of
 Gaussian, Inc. access to this program.  By using this program,
 the user acknowledges that Gaussian, Inc. is engaged in the
 business of creating and licensing software in the field of
 computational chemistry and represents and warrants to the
 licensee that it is not a competitor of Gaussian, Inc. and that
 it will not use this program in any manner prohibited above.
 ---------------------------------------------------------------
  

 Cite this work as:
 Gaussian 16, Revision C.01,
 M. J. Frisch, G. W. Trucks, H. B. Schlegel, G. E. Scuseria, 
 M. A. Robb, J. R. Cheeseman, G. Scalmani, V. Barone, 
 G. A. Petersson, H. Nakatsuji, X. Li, M. Caricato, A. V. Marenich, 
 J. Bloino, B. G. Janesko, R. Gomperts, B. Mennucci, H. P. Hratchian, 
 J. V. Ortiz, A. F. Izmaylov, J. L. Sonnenberg, D. Williams-Young, 
 F. Ding, F. Lipparini, F. Egidi, J. Goings, B. Peng, A. Petrone, 
 T. Henderson, D. Ranasinghe, V. G. Zakrzewski, J. Gao, N. Rega, 
 G. Zheng, W. Liang, M. Hada, M. Ehara, K. Toyota, R. Fukuda, 
 J. Hasegawa, M. Ishida, T. Nakajima, Y. Honda, O. Kitao, H. Nakai, 
 T. Vreven, K. Throssell, J. A. Montgomery, Jr., J. E. Peralta, 
 F. Ogliaro, M. J. Bearpark, J. J. Heyd, E. N. Brothers, K. N. Kudin, 
 V. N. Staroverov, T. A. Keith, R. Kobayashi, J. Normand, 
 K. Raghavachari, A. P. Rendell, J. C. Burant, S. S. Iyengar, 
 J. Tomasi, M. Cossi, J. M. Millam, M. Klene, C. Adamo, R. Cammi, 
 J. W. Ochterski, R. L. Martin, K. Morokuma, O. Farkas, 
 J. B. Foresman, and D. J. Fox, Gaussian, Inc., Wallingford CT, 2019.
 
 ******************************************
 Gaussian 16:  ES64L-G16RevC.01  3-Jul-2019
                 1-Nov-2023 
 ******************************************
 %nprocshared=32
 Will use up to   32 processors via shared memory.
 %mem=8000MB
 %chk=ph4tbu_idp_1_1_m062x.chk
 -----------------------------------------
 # opt freq=noraman m062x def2tzvp pop=nbo
 -----------------------------------------
 1/18=20,19=15,26=3,38=1/1,3;
 2/9=110,12=2,17=6,18=5,40=1/2;
 3/5=44,7=101,11=2,25=1,30=1,71=1,74=-55/1,2,3;
 4//1;
 5/5=2,38=5/2;
 6/7=2,8=2,9=2,10=2,28=1,40=1/1,7;
 7//1,2,3,16;
 1/18=20,19=15,26=3/3(2);
 2/9=110/2;
 99//99;
 2/9=110/2;
 3/5=44,7=101,11=2,25=1,30=1,71=1,74=-55/1,2,3;
 4/5=5,16=3,69=1/1;
 5/5=2,38=5/2;
 7//1,2,3,16;
 1/18=20,19=15,26=3/3(-5);
 2/9=110/2;
 6/7=2,8=2,9=2,10=2,19=2,28=1,40=1/1,7;
 99/9=1/99;
 ------------
 Structure697
 ------------
 Symbolic Z-matrix:
 Charge =  0 Multiplicity = 1
 C                     1.5925    0.0908    0.1551 
 C                     2.1941   -0.7644   -0.7781 
 C                     3.5808   -0.849    -0.8774 
 C                     4.3797   -0.0743   -0.0412 
 C                     3.802     0.782     0.892 
 C                     2.4148    0.8617    0.9881 
 H                     1.584    -1.38     -1.4225 
 H                     4.0331   -1.515    -1.5978 
 H                     5.4558   -0.138    -0.117 
 H                     4.4257    1.3843    1.5366 
 H                     1.9773    1.5394    1.7063 
 C                    -2.7115    0.346     0.4589 
 C                    -2.0833    0.2136   -0.7865 
 C                    -0.6971    0.1305   -0.8842 
 C                     0.1056    0.1789    0.2599 
 C                    -0.5183    0.3118    1.5046 
 C                    -1.9049    0.3933    1.6053 
 H                    -2.6691    0.177    -1.6922 
 H                    -0.2458    0.0425   -1.8613 
 H                     0.0732    0.3378    2.4076 
 H                    -2.3313    0.4905    2.5909 
 C                    -4.2574    0.4345    0.5277 
 C                    -4.802     0.5758    1.9722 
 H                    -5.8911    0.6354    1.9867 
 H                    -4.5251   -0.2771    2.5934 
 H                    -4.4307    1.4795    2.4572 
 C                    -4.7461    1.6647   -0.2719 
 H                    -5.8306    1.7718   -0.2249 
 H                    -4.3113    2.5867    0.1167 
 H                    -4.481     1.6028   -1.3275 
 C                    -4.8814   -0.8448   -0.0773 
 H                    -5.9707   -0.827    -0.023 
 H                    -4.6203   -0.9744   -1.1276 
 H                    -4.5441   -1.7372    0.4519 
 

 GradGradGradGradGradGradGradGradGradGradGradGradGradGradGradGradGradGrad
 Berny optimization.
 Initialization pass.
                           ----------------------------
                           !    Initial Parameters    !
                           ! (Angstroms and Degrees)  !
 --------------------------                            --------------------------
 ! Name  Definition              Value          Derivative Info.                !
 --------------------------------------------------------------------------------
 ! R1    R(1,2)                  1.4015         estimate D2E/DX2                !
 ! R2    R(1,6)                  1.4016         estimate D2E/DX2                !
 ! R3    R(1,15)                 1.4932         estimate D2E/DX2                !
 ! R4    R(2,3)                  1.3928         estimate D2E/DX2                !
 ! R5    R(2,7)                  1.08           estimate D2E/DX2                !
 ! R6    R(3,4)                  1.392          estimate D2E/DX2                !
 ! R7    R(3,8)                  1.0803         estimate D2E/DX2                !
 ! R8    R(4,5)                  1.3921         estimate D2E/DX2                !
 ! R9    R(4,9)                  1.0806         estimate D2E/DX2                !
 ! R10   R(5,6)                  1.3928         estimate D2E/DX2                !
 ! R11   R(5,10)                 1.0804         estimate D2E/DX2                !
 ! R12   R(6,11)                 1.08           estimate D2E/DX2                !
 ! R13   R(12,13)                1.4011         estimate D2E/DX2                !
 ! R14   R(12,17)                1.4025         estimate D2E/DX2                !
 ! R15   R(12,22)                1.55           estimate D2E/DX2                !
 ! R16   R(13,14)                1.3921         estimate D2E/DX2                !
 ! R17   R(13,18)                1.0793         estimate D2E/DX2                !
 ! R18   R(14,15)                1.3984         estimate D2E/DX2                !
 ! R19   R(14,19)                1.0799         estimate D2E/DX2                !
 ! R20   R(15,16)                1.3986         estimate D2E/DX2                !
 ! R21   R(16,17)                1.3926         estimate D2E/DX2                !
 ! R22   R(16,20)                1.0798         estimate D2E/DX2                !
 ! R23   R(17,21)                1.0783         estimate D2E/DX2                !
 ! R24   R(22,23)                1.5502         estimate D2E/DX2                !
 ! R25   R(22,27)                1.5465         estimate D2E/DX2                !
 ! R26   R(22,31)                1.5466         estimate D2E/DX2                !
 ! R27   R(23,24)                1.0908         estimate D2E/DX2                !
 ! R28   R(23,25)                1.0909         estimate D2E/DX2                !
 ! R29   R(23,26)                1.0908         estimate D2E/DX2                !
 ! R30   R(27,28)                1.0908         estimate D2E/DX2                !
 ! R31   R(27,29)                1.0909         estimate D2E/DX2                !
 ! R32   R(27,30)                1.0901         estimate D2E/DX2                !
 ! R33   R(31,32)                1.0908         estimate D2E/DX2                !
 ! R34   R(31,33)                1.09           estimate D2E/DX2                !
 ! R35   R(31,34)                1.091          estimate D2E/DX2                !
 ! A1    A(2,1,6)              118.6552         estimate D2E/DX2                !
 ! A2    A(2,1,15)             120.6764         estimate D2E/DX2                !
 ! A3    A(6,1,15)             120.6684         estimate D2E/DX2                !
 ! A4    A(1,2,3)              120.7911         estimate D2E/DX2                !
 ! A5    A(1,2,7)              120.1735         estimate D2E/DX2                !
 ! A6    A(3,2,7)              119.0292         estimate D2E/DX2                !
 ! A7    A(2,3,4)              119.6547         estimate D2E/DX2                !
 ! A8    A(2,3,8)              120.1202         estimate D2E/DX2                !
 ! A9    A(4,3,8)              120.2248         estimate D2E/DX2                !
 ! A10   A(3,4,5)              120.4559         estimate D2E/DX2                !
 ! A11   A(3,4,9)              119.7734         estimate D2E/DX2                !
 ! A12   A(5,4,9)              119.7707         estimate D2E/DX2                !
 ! A13   A(4,5,6)              119.655          estimate D2E/DX2                !
 ! A14   A(4,5,10)             120.2193         estimate D2E/DX2                !
 ! A15   A(6,5,10)             120.1253         estimate D2E/DX2                !
 ! A16   A(1,6,5)              120.7879         estimate D2E/DX2                !
 ! A17   A(1,6,11)             120.1782         estimate D2E/DX2                !
 ! A18   A(5,6,11)             119.0277         estimate D2E/DX2                !
 ! A19   A(13,12,17)           118.1557         estimate D2E/DX2                !
 ! A20   A(13,12,22)           119.4738         estimate D2E/DX2                !
 ! A21   A(17,12,22)           122.3705         estimate D2E/DX2                !
 ! A22   A(12,13,14)           120.9616         estimate D2E/DX2                !
 ! A23   A(12,13,18)           120.3819         estimate D2E/DX2                !
 ! A24   A(14,13,18)           118.6562         estimate D2E/DX2                !
 ! A25   A(13,14,15)           120.802          estimate D2E/DX2                !
 ! A26   A(13,14,19)           118.98           estimate D2E/DX2                !
 ! A27   A(15,14,19)           120.2117         estimate D2E/DX2                !
 ! A28   A(1,15,14)            120.8049         estimate D2E/DX2                !
 ! A29   A(1,15,16)            120.8148         estimate D2E/DX2                !
 ! A30   A(14,15,16)           118.3803         estimate D2E/DX2                !
 ! A31   A(15,16,17)           120.9342         estimate D2E/DX2                !
 ! A32   A(15,16,20)           120.143          estimate D2E/DX2                !
 ! A33   A(17,16,20)           118.9165         estimate D2E/DX2                !
 ! A34   A(12,17,16)           120.7661         estimate D2E/DX2                !
 ! A35   A(12,17,21)           121.5168         estimate D2E/DX2                !
 ! A36   A(16,17,21)           117.7168         estimate D2E/DX2                !
 ! A37   A(12,22,23)           113.3879         estimate D2E/DX2                !
 ! A38   A(12,22,27)           109.7339         estimate D2E/DX2                !
 ! A39   A(12,22,31)           109.7437         estimate D2E/DX2                !
 ! A40   A(23,22,27)           107.3535         estimate D2E/DX2                !
 ! A41   A(23,22,31)           107.3471         estimate D2E/DX2                !
 ! A42   A(27,22,31)           109.1621         estimate D2E/DX2                !
 ! A43   A(22,23,24)           111.5997         estimate D2E/DX2                !
 ! A44   A(22,23,25)           111.727          estimate D2E/DX2                !
 ! A45   A(22,23,26)           111.7313         estimate D2E/DX2                !
 ! A46   A(24,23,25)           106.773          estimate D2E/DX2                !
 ! A47   A(24,23,26)           106.7794         estimate D2E/DX2                !
 ! A48   A(25,23,26)           107.9482         estimate D2E/DX2                !
 ! A49   A(22,27,28)           111.7165         estimate D2E/DX2                !
 ! A50   A(22,27,29)           111.234          estimate D2E/DX2                !
 ! A51   A(22,27,30)           112.2501         estimate D2E/DX2                !
 ! A52   A(28,27,29)           107.3333         estimate D2E/DX2                !
 ! A53   A(28,27,30)           106.8027         estimate D2E/DX2                !
 ! A54   A(29,27,30)           107.2169         estimate D2E/DX2                !
 ! A55   A(22,31,32)           111.7118         estimate D2E/DX2                !
 ! A56   A(22,31,33)           112.249          estimate D2E/DX2                !
 ! A57   A(22,31,34)           111.2305         estimate D2E/DX2                !
 ! A58   A(32,31,33)           106.8053         estimate D2E/DX2                !
 ! A59   A(32,31,34)           107.3347         estimate D2E/DX2                !
 ! A60   A(33,31,34)           107.2229         estimate D2E/DX2                !
 ! D1    D(6,1,2,3)              0.0325         estimate D2E/DX2                !
 ! D2    D(6,1,2,7)            179.1246         estimate D2E/DX2                !
 ! D3    D(15,1,2,3)          -179.9648         estimate D2E/DX2                !
 ! D4    D(15,1,2,7)            -0.8727         estimate D2E/DX2                !
 ! D5    D(2,1,6,5)              0.0363         estimate D2E/DX2                !
 ! D6    D(2,1,6,11)           179.1244         estimate D2E/DX2                !
 ! D7    D(15,1,6,5)          -179.9664         estimate D2E/DX2                !
 ! D8    D(15,1,6,11)           -0.8784         estimate D2E/DX2                !
 ! D9    D(2,1,15,14)          -38.1705         estimate D2E/DX2                !
 ! D10   D(2,1,15,16)          141.828          estimate D2E/DX2                !
 ! D11   D(6,1,15,14)          141.8323         estimate D2E/DX2                !
 ! D12   D(6,1,15,16)          -38.1692         estimate D2E/DX2                !
 ! D13   D(1,2,3,4)             -0.0669         estimate D2E/DX2                !
 ! D14   D(1,2,3,8)            179.7403         estimate D2E/DX2                !
 ! D15   D(7,2,3,4)           -179.1692         estimate D2E/DX2                !
 ! D16   D(7,2,3,8)              0.6379         estimate D2E/DX2                !
 ! D17   D(2,3,4,5)              0.0327         estimate D2E/DX2                !
 ! D18   D(2,3,4,9)           -179.9645         estimate D2E/DX2                !
 ! D19   D(8,3,4,5)           -179.7743         estimate D2E/DX2                !
 ! D20   D(8,3,4,9)              0.2286         estimate D2E/DX2                !
 ! D21   D(3,4,5,6)              0.0352         estimate D2E/DX2                !
 ! D22   D(3,4,5,10)          -179.7714         estimate D2E/DX2                !
 ! D23   D(9,4,5,6)           -179.9676         estimate D2E/DX2                !
 ! D24   D(9,4,5,10)             0.2257         estimate D2E/DX2                !
 ! D25   D(4,5,6,1)             -0.0701         estimate D2E/DX2                !
 ! D26   D(4,5,6,11)          -179.1685         estimate D2E/DX2                !
 ! D27   D(10,5,6,1)           179.7367         estimate D2E/DX2                !
 ! D28   D(10,5,6,11)            0.6383         estimate D2E/DX2                !
 ! D29   D(17,12,13,14)          0.0344         estimate D2E/DX2                !
 ! D30   D(17,12,13,18)       -179.7832         estimate D2E/DX2                !
 ! D31   D(22,12,13,14)       -179.9575         estimate D2E/DX2                !
 ! D32   D(22,12,13,18)          0.2249         estimate D2E/DX2                !
 ! D33   D(13,12,17,16)          0.0543         estimate D2E/DX2                !
 ! D34   D(13,12,17,21)       -179.7661         estimate D2E/DX2                !
 ! D35   D(22,12,17,16)       -179.9541         estimate D2E/DX2                !
 ! D36   D(22,12,17,21)          0.2256         estimate D2E/DX2                !
 ! D37   D(13,12,22,23)        179.9046         estimate D2E/DX2                !
 ! D38   D(13,12,22,27)        -60.07           estimate D2E/DX2                !
 ! D39   D(13,12,22,31)         59.8805         estimate D2E/DX2                !
 ! D40   D(17,12,22,23)         -0.0869         estimate D2E/DX2                !
 ! D41   D(17,12,22,27)        119.9385         estimate D2E/DX2                !
 ! D42   D(17,12,22,31)       -120.111          estimate D2E/DX2                !
 ! D43   D(12,13,14,15)         -0.0862         estimate D2E/DX2                !
 ! D44   D(12,13,14,19)       -179.1779         estimate D2E/DX2                !
 ! D45   D(18,13,14,15)        179.7345         estimate D2E/DX2                !
 ! D46   D(18,13,14,19)          0.6428         estimate D2E/DX2                !
 ! D47   D(13,14,15,1)        -179.9539         estimate D2E/DX2                !
 ! D48   D(13,14,15,16)          0.0476         estimate D2E/DX2                !
 ! D49   D(19,14,15,1)          -0.8733         estimate D2E/DX2                !
 ! D50   D(19,14,15,16)        179.1281         estimate D2E/DX2                !
 ! D51   D(1,15,16,17)        -179.9573         estimate D2E/DX2                !
 ! D52   D(1,15,16,20)          -0.8814         estimate D2E/DX2                !
 ! D53   D(14,15,16,17)          0.0413         estimate D2E/DX2                !
 ! D54   D(14,15,16,20)        179.1172         estimate D2E/DX2                !
 ! D55   D(15,16,17,12)         -0.0931         estimate D2E/DX2                !
 ! D56   D(15,16,17,21)        179.7339         estimate D2E/DX2                !
 ! D57   D(20,16,17,12)       -179.1802         estimate D2E/DX2                !
 ! D58   D(20,16,17,21)          0.6468         estimate D2E/DX2                !
 ! D59   D(12,22,23,24)       -179.9935         estimate D2E/DX2                !
 ! D60   D(12,22,23,25)        -60.5291         estimate D2E/DX2                !
 ! D61   D(12,22,23,26)         60.5309         estimate D2E/DX2                !
 ! D62   D(27,22,23,24)         58.636          estimate D2E/DX2                !
 ! D63   D(27,22,23,25)        178.1005         estimate D2E/DX2                !
 ! D64   D(27,22,23,26)        -60.8395         estimate D2E/DX2                !
 ! D65   D(31,22,23,24)        -58.6153         estimate D2E/DX2                !
 ! D66   D(31,22,23,25)         60.8492         estimate D2E/DX2                !
 ! D67   D(31,22,23,26)       -178.0908         estimate D2E/DX2                !
 ! D68   D(12,22,27,28)       -178.6265         estimate D2E/DX2                !
 ! D69   D(12,22,27,29)        -58.7057         estimate D2E/DX2                !
 ! D70   D(12,22,27,30)         61.4307         estimate D2E/DX2                !
 ! D71   D(23,22,27,28)        -54.9895         estimate D2E/DX2                !
 ! D72   D(23,22,27,29)         64.9313         estimate D2E/DX2                !
 ! D73   D(23,22,27,30)       -174.9324         estimate D2E/DX2                !
 ! D74   D(31,22,27,28)         61.0691         estimate D2E/DX2                !
 ! D75   D(31,22,27,29)       -179.0101         estimate D2E/DX2                !
 ! D76   D(31,22,27,30)        -58.8738         estimate D2E/DX2                !
 ! D77   D(12,22,31,32)        178.6111         estimate D2E/DX2                !
 ! D78   D(12,22,31,33)        -61.4468         estimate D2E/DX2                !
 ! D79   D(12,22,31,34)         58.694          estimate D2E/DX2                !
 ! D80   D(23,22,31,32)         54.9722         estimate D2E/DX2                !
 ! D81   D(23,22,31,33)        174.9143         estimate D2E/DX2                !
 ! D82   D(23,22,31,34)        -64.9449         estimate D2E/DX2                !
 ! D83   D(27,22,31,32)        -61.0905         estimate D2E/DX2                !
 ! D84   D(27,22,31,33)         58.8516         estimate D2E/DX2                !
 ! D85   D(27,22,31,34)        178.9925         estimate D2E/DX2                !
 --------------------------------------------------------------------------------
 Trust Radius=3.00D-01 FncErr=1.00D-07 GrdErr=1.00D-06 EigMax=2.50D+02 EigMin=1.00D-04
 Number of steps in this run=    190 maximum allowed number of steps=    204.
 GradGradGradGradGradGradGradGradGradGradGradGradGradGradGradGradGradGrad

                          Input orientation:                          
 ---------------------------------------------------------------------
 Center     Atomic      Atomic             Coordinates (Angstroms)
 Number     Number       Type             X           Y           Z
 ---------------------------------------------------------------------
      1          6           0        1.592500    0.090800    0.155100
      2          6           0        2.194100   -0.764400   -0.778100
      3          6           0        3.580800   -0.849000   -0.877400
      4          6           0        4.379700   -0.074300   -0.041200
      5          6           0        3.802000    0.782000    0.892000
      6          6           0        2.414800    0.861700    0.988100
      7          1           0        1.584000   -1.380000   -1.422500
      8          1           0        4.033100   -1.515000   -1.597800
      9          1           0        5.455800   -0.138000   -0.117000
     10          1           0        4.425700    1.384300    1.536600
     11          1           0        1.977300    1.539400    1.706300
     12          6           0       -2.711500    0.346000    0.458900
     13          6           0       -2.083300    0.213600   -0.786500
     14          6           0       -0.697100    0.130500   -0.884200
     15          6           0        0.105600    0.178900    0.259900
     16          6           0       -0.518300    0.311800    1.504600
     17          6           0       -1.904900    0.393300    1.605300
     18          1           0       -2.669100    0.177000   -1.692200
     19          1           0       -0.245800    0.042500   -1.861300
     20          1           0        0.073200    0.337800    2.407600
     21          1           0       -2.331300    0.490500    2.590900
     22          6           0       -4.257400    0.434500    0.527700
     23          6           0       -4.802000    0.575800    1.972200
     24          1           0       -5.891100    0.635400    1.986700
     25          1           0       -4.525100   -0.277100    2.593400
     26          1           0       -4.430700    1.479500    2.457200
     27          6           0       -4.746100    1.664700   -0.271900
     28          1           0       -5.830600    1.771800   -0.224900
     29          1           0       -4.311300    2.586700    0.116700
     30          1           0       -4.481000    1.602800   -1.327500
     31          6           0       -4.881400   -0.844800   -0.077300
     32          1           0       -5.970700   -0.827000   -0.023000
     33          1           0       -4.620300   -0.974400   -1.127600
     34          1           0       -4.544100   -1.737200    0.451900
 ---------------------------------------------------------------------
                    Distance matrix (angstroms):
                    1          2          3          4          5
     1  C    0.000000
     2  C    1.401482   0.000000
     3  C    2.429530   1.392823   0.000000
     4  C    2.798978   2.407511   1.391988   0.000000
     5  C    2.429541   2.786742   2.416582   1.392067   0.000000
     6  C    1.401554   2.410886   2.786780   2.407569   1.392807
     7  H    2.156884   1.080017   2.136891   3.380648   3.866611
     8  H    3.407019   2.148774   1.080327   2.149128   3.395397
     9  H    3.879623   3.386461   2.144610   1.080645   2.144653
    10  H    3.407155   3.867142   3.395421   2.149205   1.080406
    11  H    2.157020   3.395105   3.866675   3.380726   2.136883
    12  C    4.322249   5.179582   6.542688   7.121227   6.542427
    13  C    3.796472   4.387790   5.763628   6.512198   6.146316
    14  C    2.514754   3.028389   4.388610   5.150387   4.880701
    15  C    1.493190   2.515768   3.798295   4.292168   3.798243
    16  C    2.515048   3.704867   4.880984   5.150629   4.388776
    17  C    3.798209   4.880847   6.148172   6.513510   5.764425
    18  H    4.645555   5.037115   6.385752   7.243931   6.994230
    19  H    2.729020   2.788821   4.050395   4.972088   4.950980
    20  H    2.728193   3.982681   4.950048   4.971156   4.049482
    21  H    4.635632   5.779635   6.984003   7.230800   6.370918
    22  C    5.871822   6.690615   8.065920   8.670757   8.075110
    23  C    6.665336   7.635817   8.967810   9.422315   8.673994
    24  H    7.723705   8.658754  10.006168  10.493111   9.755821
    25  H    6.595884   7.533400   8.836240   9.288579   8.564873
    26  H    6.595990   7.706506   8.984743   9.288673   8.409144
    27  C    6.545024   7.370423   8.719093   9.292877   8.672015
    28  H    7.620536   8.434106   9.791261  10.377478   9.747520
    29  H    6.409824   7.372297   8.664728   9.090618   8.347674
    30  H    6.432080   7.103692   8.438396   9.109294   8.614405
    31  C    6.545284   7.110576   8.499942   9.293167   8.887489
    32  H    7.620766   8.199881   9.589663  10.377749   9.946445
    33  H    6.432640   6.826588   8.205874   9.109909   8.837356
    34  H    6.409956   6.918279   8.280697   9.090797   8.729115
                    6          7          8          9         10
     6  C    0.000000
     7  H    3.395061   0.000000
     8  H    3.867102   2.459074   0.000000
     9  H    3.386492   4.270565   2.472443   0.000000
    10  H    2.148879   4.947008   4.287720   2.472427   0.000000
    11  H    1.080044   4.297321   4.946994   4.270604   2.459170
    12  C    5.179281   4.997005   7.292665   8.201872   7.292402
    13  C    4.878744   4.048845   6.407544   7.576931   7.009594
    14  C    3.704603   2.788332   5.058823   6.206357   5.803048
    15  C    2.515730   2.728792   4.663218   5.372813   4.663284
    16  C    3.028570   3.981177   5.803217   6.206591   5.059092
    17  C    4.388638   4.948190   7.011512   7.578160   6.408065
    18  H    5.787820   4.537163   6.913122   8.282178   7.887896
    19  H    3.983586   2.358860   4.561165   5.965183   5.930351
    20  H    2.787928   4.461280   5.929326   5.964258   4.560489
    21  H    5.023169   5.910645   7.878631   8.268413   6.896918
    22  C    6.701695   6.420097   8.777852   9.751392   8.792965
    23  C    7.289197   7.492005   9.755785  10.492699   9.273288
    24  H    8.368775   8.459409  10.768594  11.566151  10.353734
    25  H    7.213603   7.393575   9.609440  10.343306   9.164818
    26  H    7.028570   7.707492   9.851191  10.343389   8.904627
    27  C    7.315114   7.117882   9.430952  10.361104   9.352605
    28  H    8.383691   8.145206  10.487158  11.447349  10.413680
    29  H    6.998242   7.270379   9.454759  10.142724   8.932919
    30  H    7.311860   6.759463   9.071033  10.160497   9.358425
    31  C    7.568471   6.625511   9.068043  10.361411   9.705445
    32  H    8.613399   7.703110  10.150338  11.447640  10.742780
    33  H    7.572323   6.224533   8.683010  10.161135   9.720676
    34  H    7.447690   6.418300   8.821508  10.142933   9.559166
                   11         12         13         14         15
    11  H    0.000000
    12  C    4.996504   0.000000
    13  C    4.945732   1.401137   0.000000
    14  C    3.980968   2.430672   1.392121   0.000000
    15  C    2.728790   2.829059   2.426405   1.398440   0.000000
    16  C    2.788495   2.429976   2.776330   2.402333   1.398639
    17  C    4.049102   1.402524   2.405166   2.779470   2.428617
    18  H    5.915655   2.158145   1.079256   2.131622   3.392589
    19  H    4.462135   3.399282   2.135621   1.079880   2.154432
    20  H    2.358233   3.398831   3.855930   3.387076   2.153814
    21  H    4.521807   2.170451   3.397795   3.857010   3.386611
    22  C    6.440604   1.549959   2.550025   3.842085   4.378678
    23  C    6.852601   2.590960   3.890109   5.020709   5.212872
    24  H    7.925122   3.539461   4.729471   5.956058   6.257047
    25  H    6.809392   2.869406   4.198440   5.187815   5.205434
    26  H    6.452124   2.869438   4.199331   5.188885   5.205546
    27  C    7.009499   2.532318   3.075875   4.372995   5.101902
    28  H    8.046542   3.497038   4.097028   5.429674   6.165293
    29  H    6.570400   2.774382   3.378070   4.482986   5.032595
    30  H    7.135657   2.811032   2.823389   4.084370   5.058086
    31  C    7.477125   2.532584   3.074498   4.371575   5.102140
    32  H    8.471188   3.497219   4.096054   5.428566   6.165492
    33  H    7.607792   2.811397   2.822067   4.083080   5.058595
    34  H    7.405288   2.774562   3.375617   4.480276   5.032694
                   16         17         18         19         20
    16  C    0.000000
    17  C    1.392639   0.000000
    18  H    3.855339   3.391798   0.000000
    19  H    3.387634   3.859144   2.432913   0.000000
    20  H    1.079795   2.135333   4.935020   4.290975   0.000000
    21  H    2.121073   1.078273   4.307823   4.936811   2.416306
    22  C    3.866556   2.587890   2.741707   4.685501   4.722020
    23  C    4.317225   2.925938   4.258654   5.978218   4.900387
    24  H    5.404083   4.011716   4.911794   6.857700   5.986535
    25  H    4.193654   2.879449   4.692261   6.185378   4.642950
    26  H    4.192594   2.878407   4.692255   6.182863   4.646618
    27  C    4.781274   3.634935   2.923086   5.040875   5.671511
    28  H    5.774366   4.545439   3.832941   6.071102   6.621274
    29  H    4.635546   3.580181   3.431559   5.187844   5.434116
    30  H    5.038895   4.086624   2.334286   4.544931   6.024279
    31  C    4.782967   3.636425   2.923397   5.045666   5.667568
    32  H    5.775733   4.546562   3.833381   6.075348   6.617651
    33  H    5.040753   4.088122   2.334883   4.550676   6.020669
    34  H    4.638280   3.582560   3.431756   5.195537   5.426771
                   21         22         23         24         25
    21  H    0.000000
    22  C    2.823082   0.000000
    23  C    2.548416   1.550205   0.000000
    24  H    3.613617   2.199549   1.090826   0.000000
    25  H    2.324215   2.201171   1.090872   1.751199   0.000000
    26  H    2.324538   2.201142   1.090762   1.751183   1.764399
    27  C    3.925000   1.546473   2.494957   2.733452   3.468339
    28  H    4.670713   2.197666   2.704752   2.487215   3.720905
    29  H    3.799489   2.191755   2.779818   3.130533   3.792243
    30  H    4.605679   2.203790   3.470705   3.729365   4.348497
    31  C    3.924962   1.546612   2.494967   2.733237   2.753520
    32  H    4.670494   2.197737   2.704539   2.486734   3.039358
    33  H    4.605724   2.203795   3.470576   3.728975   3.786969
    34  H    3.799270   2.191854   2.779891   3.130376   2.591964
                   26         27         28         29         30
    26  H    0.000000
    27  C    2.753500   0.000000
    28  H    3.039543   1.090789   0.000000
    29  H    2.591928   1.090938   1.757562   0.000000
    30  H    3.787042   1.090138   1.750916   1.755725   0.000000
    31  C    3.468312   2.520668   2.787358   3.483941   2.777421
    32  H    3.720609   2.787502   2.610393   3.798220   3.134462
    33  H    4.348375   2.777210   3.133897   3.784864   2.588692
    34  H    3.792261   3.483908   3.798187   4.343117   3.784950
                   31         32         33         34
    31  C    0.000000
    32  H    1.090798   0.000000
    33  H    1.090000   1.750842   0.000000
    34  H    1.090964   1.757607   1.755702   0.000000
 Stoichiometry    C16H18
 Framework group  C1[X(C16H18)]
 Deg. of freedom    96
 Full point group                 C1      NOp   1
 Largest Abelian subgroup         C1      NOp   1
 Largest concise Abelian subgroup C1      NOp   1
                         Standard orientation:                         
 ---------------------------------------------------------------------
 Center     Atomic      Atomic             Coordinates (Angstroms)
 Number     Number       Type             X           Y           Z
 ---------------------------------------------------------------------
      1          6           0       -2.333503    0.004391   -0.001896
      2          6           0       -3.043163   -1.140276   -0.389546
      3          6           0       -4.435951   -1.150041   -0.388700
      4          6           0       -5.132438   -0.010254    0.002991
      5          6           0       -4.446523    1.136832    0.392301
      6          6           0       -3.053730    1.141671    0.388257
      7          1           0       -2.513052   -2.025632   -0.708238
      8          1           0       -4.972056   -2.037023   -0.693599
      9          1           0       -6.213067   -0.015901    0.004921
     10          1           0       -4.990948    2.018158    0.699128
     11          1           0       -2.531827    2.032565    0.705146
     12          6           0        1.988676    0.027720   -0.009485
     13          6           0        1.274604   -1.109475    0.390609
     14          6           0       -0.117495   -1.117220    0.392165
     15          6           0       -0.840336    0.012284   -0.004514
     16          6           0       -0.130564    1.149397   -0.403751
     17          6           0        1.262034    1.159203   -0.407994
     18          1           0        1.797476   -1.998824    0.707559
     19          1           0       -0.635397   -2.006494    0.719440
     20          1           0       -0.659908    2.032501   -0.729141
     21          1           0        1.756218    2.061984   -0.729616
     22          6           0        3.538314   -0.001948    0.001212
     23          6           0        4.182498    1.327356   -0.469015
     24          1           0        5.271874    1.274364   -0.450246
     25          1           0        3.896935    1.574663   -1.492389
     26          1           0        3.896820    2.163158    0.170975
     27          6           0        4.045402   -0.278109    1.435847
     28          1           0        5.135075   -0.282012    1.485010
     29          1           0        3.691303    0.482355    2.133309
     30          1           0        3.709442   -1.243928    1.813639
     31          6           0        4.046005   -1.118856   -0.940476
     32          1           0        5.135709   -1.152333   -0.976026
     33          1           0        3.710413   -2.107338   -0.626822
     34          1           0        3.692014   -0.966324   -1.961077
 ---------------------------------------------------------------------
 Rotational constants (GHZ):           1.7615934           0.2221624           0.2095233
 Standard basis: def2TZVP (5D, 7F)
 There are   684 symmetry adapted cartesian basis functions of A   symmetry.
 There are   604 symmetry adapted basis functions of A   symmetry.
   604 basis functions,   960 primitive gaussians,   684 cartesian basis functions
    57 alpha electrons       57 beta electrons
       nuclear repulsion energy       996.7418171437 Hartrees.
 NAtoms=   34 NActive=   34 NUniq=   34 SFac= 1.00D+00 NAtFMM=   60 NAOKFM=F Big=F
 Integral buffers will be    131072 words long.
 Raffenetti 2 integral format.
 Two-electron integral symmetry is turned on.
 One-electron integrals computed using PRISM.
   1 Symmetry operations used in ECPInt.
 ECPInt:  NShTT=   30876 NPrTT=   92212 LenC2=   26943 LenP2D=   59326.
 LDataN:  DoStor=T MaxTD1= 6 Len=  172
 NBasis=   604 RedAO= T EigKep=  6.46D-06  NBF=   604
 NBsUse=   604 1.00D-06 EigRej= -1.00D+00 NBFU=   604
 ExpMin= 9.52D-02 ExpMax= 1.36D+04 ExpMxC= 4.63D+02 IAcc=3 IRadAn=         5 AccDes= 0.00D+00
 Harris functional with IExCor= 1009 and IRadAn=       5 diagonalized for initial guess.
 HarFok:  IExCor= 1009 AccDes= 0.00D+00 IRadAn=         5 IDoV= 1 UseB2=F ITyADJ=14
 ICtDFT=  3500011 ScaDFX=  1.000000  1.000000  1.000000  1.000000
 FoFCou: FMM=F IPFlag=           0 FMFlag=      100000 FMFlg1=           0
         NFxFlg=           0 DoJE=T BraDBF=F KetDBF=T FulRan=T
         wScrn=  0.000000 ICntrl=       500 IOpCl=  0 I1Cent=   200000004 NGrid=           0
         NMat0=    1 NMatS0=      1 NMatT0=    0 NMatD0=    1 NMtDS0=    0 NMtDT0=    0
 Petite list used in FoFCou.
 Requested convergence on RMS density matrix=1.00D-08 within 128 cycles.
 Requested convergence on MAX density matrix=1.00D-06.
 Requested convergence on             energy=1.00D-06.
 No special actions if energy rises.
 Integral accuracy reduced to 1.0D-05 until final iterations.
 Problem detected with inexpensive integrals.
 Switching to full accuracy and repeating last cycle.
 SCF Done:  E(RM062X) =  -620.498785226     A.U. after   14 cycles
            NFock= 14  Conv=0.62D-08     -V/T= 2.0056

 **********************************************************************

            Population analysis using the SCF Density.

 **********************************************************************

 Orbital symmetries:
       Occupied  (A) (A) (A) (A) (A) (A) (A) (A) (A) (A) (A) (A)
                 (A) (A) (A) (A) (A) (A) (A) (A) (A) (A) (A) (A)
                 (A) (A) (A) (A) (A) (A) (A) (A) (A) (A) (A) (A)
                 (A) (A) (A) (A) (A) (A) (A) (A) (A) (A) (A) (A)
                 (A) (A) (A) (A) (A) (A) (A) (A) (A)
       Virtual   (A) (A) (A) (A) (A) (A) (A) (A) (A) (A) (A) (A)
                 (A) (A) (A) (A) (A) (A) (A) (A) (A) (A) (A) (A)
                 (A) (A) (A) (A) (A) (A) (A) (A) (A) (A) (A) (A)
                 (A) (A) (A) (A) (A) (A) (A) (A) (A) (A) (A) (A)
                 (A) (A) (A) (A) (A) (A) (A) (A) (A) (A) (A) (A)
                 (A) (A) (A) (A) (A) (A) (A) (A) (A) (A) (A) (A)
                 (A) (A) (A) (A) (A) (A) (A) (A) (A) (A) (A) (A)
                 (A) (A) (A) (A) (A) (A) (A) (A) (A) (A) (A) (A)
                 (A) (A) (A) (A) (A) (A) (A) (A) (A) (A) (A) (A)
                 (A) (A) (A) (A) (A) (A) (A) (A) (A) (A) (A) (A)
                 (A) (A) (A) (A) (A) (A) (A) (A) (A) (A) (A) (A)
                 (A) (A) (A) (A) (A) (A) (A) (A) (A) (A) (A) (A)
                 (A) (A) (A) (A) (A) (A) (A) (A) (A) (A) (A) (A)
                 (A) (A) (A) (A) (A) (A) (A) (A) (A) (A) (A) (A)
                 (A) (A) (A) (A) (A) (A) (A) (A) (A) (A) (A) (A)
                 (A) (A) (A) (A) (A) (A) (A) (A) (A) (A) (A) (A)
                 (A) (A) (A) (A) (A) (A) (A) (A) (A) (A) (A) (A)
                 (A) (A) (A) (A) (A) (A) (A) (A) (A) (A) (A) (A)
                 (A) (A) (A) (A) (A) (A) (A) (A) (A) (A) (A) (A)
                 (A) (A) (A) (A) (A) (A) (A) (A) (A) (A) (A) (A)
                 (A) (A) (A) (A) (A) (A) (A) (A) (A) (A) (A) (A)
                 (A) (A) (A) (A) (A) (A) (A) (A) (A) (A) (A) (A)
                 (A) (A) (A) (A) (A) (A) (A) (A) (A) (A) (A) (A)
                 (A) (A) (A) (A) (A) (A) (A) (A) (A) (A) (A) (A)
                 (A) (A) (A) (A) (A) (A) (A) (A) (A) (A) (A) (A)
                 (A) (A) (A) (A) (A) (A) (A) (A) (A) (A) (A) (A)
                 (A) (A) (A) (A) (A) (A) (A) (A) (A) (A) (A) (A)
                 (A) (A) (A) (A) (A) (A) (A) (A) (A) (A) (A) (A)
                 (A) (A) (A) (A) (A) (A) (A) (A) (A) (A) (A) (A)
                 (A) (A) (A) (A) (A) (A) (A) (A) (A) (A) (A) (A)
                 (A) (A) (A) (A) (A) (A) (A) (A) (A) (A) (A) (A)
                 (A) (A) (A) (A) (A) (A) (A) (A) (A) (A) (A) (A)
                 (A) (A) (A) (A) (A) (A) (A) (A) (A) (A) (A) (A)
                 (A) (A) (A) (A) (A) (A) (A) (A) (A) (A) (A) (A)
                 (A) (A) (A) (A) (A) (A) (A) (A) (A) (A) (A) (A)
                 (A) (A) (A) (A) (A) (A) (A) (A) (A) (A) (A) (A)
                 (A) (A) (A) (A) (A) (A) (A) (A) (A) (A) (A) (A)
                 (A) (A) (A) (A) (A) (A) (A) (A) (A) (A) (A) (A)
                 (A) (A) (A) (A) (A) (A) (A) (A) (A) (A) (A) (A)
                 (A) (A) (A) (A) (A) (A) (A) (A) (A) (A) (A) (A)
                 (A) (A) (A) (A) (A) (A) (A) (A) (A) (A) (A) (A)
                 (A) (A) (A) (A) (A) (A) (A) (A) (A) (A) (A) (A)
                 (A) (A) (A) (A) (A) (A) (A) (A) (A) (A) (A) (A)
                 (A) (A) (A) (A) (A) (A) (A) (A) (A) (A) (A) (A)
                 (A) (A) (A) (A) (A) (A) (A) (A) (A) (A) (A) (A)
                 (A) (A) (A) (A) (A) (A) (A)
 The electronic state is 1-A.
 Alpha  occ. eigenvalues --  -10.55907 -10.55337 -10.55033 -10.54992 -10.54214
 Alpha  occ. eigenvalues --  -10.54207 -10.54128 -10.54122 -10.54110 -10.54033
 Alpha  occ. eigenvalues --  -10.53984 -10.53961 -10.53912 -10.52462 -10.52322
 Alpha  occ. eigenvalues --  -10.52319  -0.97516  -0.95538  -0.91609  -0.86437
 Alpha  occ. eigenvalues --   -0.84726  -0.83944  -0.80807  -0.77780  -0.77734
 Alpha  occ. eigenvalues --   -0.71125  -0.70148  -0.67295  -0.66490  -0.62915
 Alpha  occ. eigenvalues --   -0.60415  -0.56287  -0.53804  -0.53686  -0.51490
 Alpha  occ. eigenvalues --   -0.50959  -0.50779  -0.50475  -0.49318  -0.48862
 Alpha  occ. eigenvalues --   -0.48215  -0.46255  -0.45102  -0.44684  -0.43985
 Alpha  occ. eigenvalues --   -0.42887  -0.42420  -0.41666  -0.40219  -0.39903
 Alpha  occ. eigenvalues --   -0.39026  -0.37760  -0.37257  -0.32739  -0.30873
 Alpha  occ. eigenvalues --   -0.30741  -0.27330
 Alpha virt. eigenvalues --   -0.00301   0.01707   0.02253   0.05375   0.06255
 Alpha virt. eigenvalues --    0.08467   0.09410   0.09603   0.10817   0.11203
 Alpha virt. eigenvalues --    0.11775   0.11848   0.12717   0.13412   0.13659
 Alpha virt. eigenvalues --    0.14628   0.15349   0.15674   0.15775   0.16600
 Alpha virt. eigenvalues --    0.17466   0.18079   0.18806   0.19288   0.19501
 Alpha virt. eigenvalues --    0.19764   0.19859   0.21212   0.21316   0.22281
 Alpha virt. eigenvalues --    0.22951   0.23557   0.24197   0.24607   0.24930
 Alpha virt. eigenvalues --    0.25449   0.26212   0.26604   0.27211   0.27851
 Alpha virt. eigenvalues --    0.28331   0.28829   0.29385   0.29849   0.31059
 Alpha virt. eigenvalues --    0.31874   0.32045   0.32588   0.33279   0.34555
 Alpha virt. eigenvalues --    0.35088   0.35387   0.35853   0.36741   0.37117
 Alpha virt. eigenvalues --    0.37685   0.37899   0.38168   0.39014   0.39597
 Alpha virt. eigenvalues --    0.39718   0.39896   0.40936   0.41603   0.41850
 Alpha virt. eigenvalues --    0.42161   0.42748   0.43527   0.44180   0.44833
 Alpha virt. eigenvalues --    0.45031   0.45101   0.46068   0.46110   0.46532
 Alpha virt. eigenvalues --    0.47299   0.47433   0.48001   0.48764   0.49087
 Alpha virt. eigenvalues --    0.49497   0.49922   0.50505   0.50950   0.51710
 Alpha virt. eigenvalues --    0.51891   0.52830   0.53125   0.53638   0.53902
 Alpha virt. eigenvalues --    0.54065   0.54437   0.55025   0.55526   0.57178
 Alpha virt. eigenvalues --    0.57790   0.58144   0.59466   0.60478   0.62035
 Alpha virt. eigenvalues --    0.62879   0.62978   0.64541   0.64879   0.66755
 Alpha virt. eigenvalues --    0.67518   0.67719   0.69897   0.70629   0.71326
 Alpha virt. eigenvalues --    0.72447   0.73463   0.73976   0.74422   0.74934
 Alpha virt. eigenvalues --    0.75175   0.76461   0.77016   0.77689   0.77841
 Alpha virt. eigenvalues --    0.78065   0.78494   0.80122   0.81203   0.82684
 Alpha virt. eigenvalues --    0.82913   0.84301   0.85303   0.86243   0.87182
 Alpha virt. eigenvalues --    0.88511   0.88994   0.89470   0.89637   0.90589
 Alpha virt. eigenvalues --    0.91084   0.92017   0.93535   0.93667   0.94524
 Alpha virt. eigenvalues --    0.95177   0.95626   0.96253   0.98062   0.98977
 Alpha virt. eigenvalues --    0.99665   1.01017   1.02733   1.03663   1.04255
 Alpha virt. eigenvalues --    1.04769   1.05588   1.06259   1.07514   1.08131
 Alpha virt. eigenvalues --    1.09816   1.10990   1.11675   1.12799   1.13745
 Alpha virt. eigenvalues --    1.14539   1.15610   1.16808   1.17401   1.18080
 Alpha virt. eigenvalues --    1.19655   1.20264   1.21326   1.22548   1.23465
 Alpha virt. eigenvalues --    1.24391   1.24860   1.25812   1.26042   1.26988
 Alpha virt. eigenvalues --    1.28191   1.30198   1.30823   1.31776   1.32484
 Alpha virt. eigenvalues --    1.33228   1.33772   1.34952   1.35471   1.36987
 Alpha virt. eigenvalues --    1.37405   1.39434   1.40675   1.41620   1.43931
 Alpha virt. eigenvalues --    1.44070   1.45042   1.46846   1.48147   1.48913
 Alpha virt. eigenvalues --    1.50321   1.51356   1.52882   1.53586   1.54714
 Alpha virt. eigenvalues --    1.55571   1.55703   1.56435   1.57840   1.58436
 Alpha virt. eigenvalues --    1.58973   1.60084   1.60360   1.60617   1.61475
 Alpha virt. eigenvalues --    1.62051   1.62369   1.63193   1.63705   1.64849
 Alpha virt. eigenvalues --    1.65853   1.66302   1.67674   1.68294   1.68818
 Alpha virt. eigenvalues --    1.69523   1.70698   1.71459   1.72177   1.72420
 Alpha virt. eigenvalues --    1.72884   1.73103   1.74590   1.76201   1.76703
 Alpha virt. eigenvalues --    1.76765   1.77246   1.79347   1.79796   1.80751
 Alpha virt. eigenvalues --    1.84121   1.85597   1.87585   1.87664   1.90127
 Alpha virt. eigenvalues --    1.91764   1.92052   1.93022   1.93251   1.94938
 Alpha virt. eigenvalues --    1.95570   1.96011   1.97061   1.98118   1.99023
 Alpha virt. eigenvalues --    2.03356   2.03811   2.05153   2.06165   2.06592
 Alpha virt. eigenvalues --    2.07552   2.08312   2.10722   2.12006   2.12552
 Alpha virt. eigenvalues --    2.14039   2.15420   2.16208   2.19121   2.19592
 Alpha virt. eigenvalues --    2.20395   2.20656   2.21629   2.22862   2.24493
 Alpha virt. eigenvalues --    2.24877   2.26307   2.26881   2.27212   2.27633
 Alpha virt. eigenvalues --    2.28648   2.30765   2.32770   2.33468   2.33727
 Alpha virt. eigenvalues --    2.35509   2.36860   2.37510   2.38102   2.39554
 Alpha virt. eigenvalues --    2.42456   2.42794   2.43170   2.44454   2.45739
 Alpha virt. eigenvalues --    2.46386   2.47066   2.48325   2.49136   2.49871
 Alpha virt. eigenvalues --    2.50866   2.52931   2.53260   2.54533   2.55687
 Alpha virt. eigenvalues --    2.56262   2.56846   2.57579   2.59428   2.60773
 Alpha virt. eigenvalues --    2.61164   2.62238   2.62642   2.63280   2.64006
 Alpha virt. eigenvalues --    2.64579   2.65404   2.66036   2.66871   2.67270
 Alpha virt. eigenvalues --    2.67520   2.68569   2.68916   2.69773   2.69990
 Alpha virt. eigenvalues --    2.71572   2.71884   2.72884   2.73272   2.73868
 Alpha virt. eigenvalues --    2.74757   2.75481   2.76625   2.76819   2.78167
 Alpha virt. eigenvalues --    2.78876   2.79007   2.80061   2.81123   2.82281
 Alpha virt. eigenvalues --    2.83022   2.83592   2.84364   2.84743   2.85166
 Alpha virt. eigenvalues --    2.86113   2.86725   2.87273   2.88266   2.88573
 Alpha virt. eigenvalues --    2.89443   2.90003   2.92745   2.93216   2.93926
 Alpha virt. eigenvalues --    2.95103   2.97149   2.97978   2.98239   3.00378
 Alpha virt. eigenvalues --    3.02127   3.03195   3.03956   3.04840   3.05836
 Alpha virt. eigenvalues --    3.06507   3.07960   3.08670   3.09585   3.12086
 Alpha virt. eigenvalues --    3.13012   3.13547   3.14732   3.15049   3.15497
 Alpha virt. eigenvalues --    3.16460   3.16732   3.17211   3.17780   3.17880
 Alpha virt. eigenvalues --    3.18368   3.19216   3.20373   3.20718   3.21743
 Alpha virt. eigenvalues --    3.22386   3.23064   3.24263   3.24872   3.25958
 Alpha virt. eigenvalues --    3.26575   3.27903   3.28588   3.29771   3.30329
 Alpha virt. eigenvalues --    3.30962   3.31861   3.32069   3.32743   3.33586
 Alpha virt. eigenvalues --    3.34230   3.35298   3.35596   3.35998   3.36961
 Alpha virt. eigenvalues --    3.37054   3.37586   3.37994   3.38890   3.39651
 Alpha virt. eigenvalues --    3.40268   3.42389   3.42610   3.43407   3.43944
 Alpha virt. eigenvalues --    3.44654   3.45630   3.46227   3.46946   3.48076
 Alpha virt. eigenvalues --    3.48885   3.49473   3.49814   3.51508   3.52374
 Alpha virt. eigenvalues --    3.53231   3.53806   3.54266   3.54669   3.55859
 Alpha virt. eigenvalues --    3.57467   3.59371   3.59931   3.61496   3.61733
 Alpha virt. eigenvalues --    3.62676   3.63178   3.64935   3.65651   3.68973
 Alpha virt. eigenvalues --    3.69103   3.70395   3.71252   3.73581   3.75087
 Alpha virt. eigenvalues --    3.77688   3.79205   3.80288   3.82797   3.83616
 Alpha virt. eigenvalues --    3.87004   3.89878   3.90943   3.93791   3.95433
 Alpha virt. eigenvalues --    3.96690   3.99012   4.00330   4.01411   4.01879
 Alpha virt. eigenvalues --    4.03073   4.04192   4.04676   4.05519   4.07559
 Alpha virt. eigenvalues --    4.08501   4.10841   4.10979   4.11747   4.12659
 Alpha virt. eigenvalues --    4.12876   4.15022   4.15857   4.17003   4.17688
 Alpha virt. eigenvalues --    4.18029   4.18703   4.19416   4.20141   4.20371
 Alpha virt. eigenvalues --    4.20762   4.21171   4.23301   4.24669   4.25776
 Alpha virt. eigenvalues --    4.26711   4.31302   4.31927   4.32829   4.34058
 Alpha virt. eigenvalues --    4.36321   4.36773   4.38527   4.39721   4.40390
 Alpha virt. eigenvalues --    4.40772   4.41721   4.46566   4.48199   4.51188
 Alpha virt. eigenvalues --    4.54891   4.56872   4.58297   4.60175   4.62169
 Alpha virt. eigenvalues --    4.63025   4.64355   4.65955   4.66277   4.71222
 Alpha virt. eigenvalues --    4.71638   4.72199   4.74009   4.83983   4.85234
 Alpha virt. eigenvalues --    4.86153   4.88057   4.88287   4.91032   4.92781
 Alpha virt. eigenvalues --    4.93723   4.96526   5.05058   5.09567   5.17541
 Alpha virt. eigenvalues --    5.18084   5.24050   5.25289   5.29519   5.34433
 Alpha virt. eigenvalues --    5.37300   5.41830   5.47074   5.58389   5.59664
 Alpha virt. eigenvalues --    5.74737  22.11442  22.42654  22.52670  22.54659
 Alpha virt. eigenvalues --   22.59025  22.68061  22.71511  22.76574  22.82861
 Alpha virt. eigenvalues --   22.85552  22.88208  22.90253  22.95610  23.02499
 Alpha virt. eigenvalues --   23.29941  23.49508
          Condensed to atoms (all electrons):
               1          2          3          4          5          6
     1  C    4.972418   0.502161  -0.058722  -0.039778  -0.059088   0.501059
     2  C    0.502161   5.016824   0.508988  -0.045435  -0.045762  -0.030936
     3  C   -0.058722   0.508988   4.898431   0.525844  -0.040057  -0.045765
     4  C   -0.039778  -0.045435   0.525844   4.877336   0.525774  -0.045448
     5  C   -0.059088  -0.045762  -0.040057   0.525774   4.898167   0.509422
     6  C    0.501059  -0.030936  -0.045765  -0.045448   0.509422   5.016188
     7  H   -0.037049   0.394730  -0.021310   0.002417  -0.000081   0.005220
     8  H    0.004595  -0.031128   0.408061  -0.031494   0.003620  -0.000030
     9  H    0.000934   0.004262  -0.035043   0.410355  -0.035021   0.004271
    10  H    0.004647  -0.000029   0.003620  -0.031518   0.408059  -0.031155
    11  H   -0.036973   0.005275  -0.000075   0.002421  -0.020994   0.394508
    12  C   -0.002280   0.000190  -0.000016   0.000001  -0.000015   0.000320
    13  C    0.010943   0.002756  -0.000032  -0.000031   0.000107  -0.001221
    14  C   -0.082268  -0.002699   0.001520   0.000006  -0.000705   0.009020
    15  C    0.278810  -0.077798   0.006249  -0.002872   0.006428  -0.077937
    16  C   -0.077439   0.008722  -0.000671  -0.000013   0.001646  -0.002371
    17  C    0.008133  -0.001081   0.000092  -0.000026  -0.000051   0.003139
    18  H   -0.000224   0.000014  -0.000001  -0.000000  -0.000000   0.000037
    19  H   -0.000360   0.002748   0.000715  -0.000071  -0.000119   0.000195
    20  H   -0.000348   0.000182  -0.000117  -0.000075   0.000747   0.002985
    21  H   -0.000027   0.000040  -0.000000  -0.000000   0.000000  -0.000009
    22  C   -0.000725   0.000012  -0.000000  -0.000000  -0.000000   0.000023
    23  C   -0.000045   0.000001  -0.000000   0.000000  -0.000000   0.000003
    24  H    0.000000   0.000000   0.000000  -0.000000   0.000000  -0.000000
    25  H   -0.000001   0.000000  -0.000000   0.000000  -0.000000  -0.000001
    26  H   -0.000007  -0.000000   0.000000   0.000000   0.000000   0.000001
    27  C   -0.000032  -0.000003  -0.000000   0.000000  -0.000000  -0.000004
    28  H    0.000001  -0.000000   0.000000  -0.000000   0.000000   0.000000
    29  H   -0.000006   0.000000   0.000000  -0.000000  -0.000000   0.000000
    30  H   -0.000004  -0.000000  -0.000000   0.000000  -0.000000   0.000000
    31  C   -0.000069   0.000001   0.000000   0.000000  -0.000000   0.000002
    32  H    0.000001   0.000000  -0.000000  -0.000000   0.000000  -0.000000
    33  H   -0.000008   0.000002   0.000000   0.000000  -0.000000  -0.000000
    34  H   -0.000002  -0.000001  -0.000000   0.000000   0.000000   0.000000
               7          8          9         10         11         12
     1  C   -0.037049   0.004595   0.000934   0.004647  -0.036973  -0.002280
     2  C    0.394730  -0.031128   0.004262  -0.000029   0.005275   0.000190
     3  C   -0.021310   0.408061  -0.035043   0.003620  -0.000075  -0.000016
     4  C    0.002417  -0.031494   0.410355  -0.031518   0.002421   0.000001
     5  C   -0.000081   0.003620  -0.035021   0.408059  -0.020994  -0.000015
     6  C    0.005220  -0.000030   0.004271  -0.031155   0.394508   0.000320
     7  H    0.490920  -0.003401  -0.000294   0.000066  -0.000231   0.000004
     8  H   -0.003401   0.510660  -0.004054  -0.000279   0.000067   0.000000
     9  H   -0.000294  -0.004054   0.517900  -0.004054  -0.000295   0.000000
    10  H    0.000066  -0.000279  -0.004054   0.510655  -0.003407   0.000001
    11  H   -0.000231   0.000067  -0.000295  -0.003407   0.491055   0.000003
    12  C    0.000004   0.000000   0.000000   0.000001   0.000003   5.277838
    13  C    0.001002   0.000000  -0.000000  -0.000000  -0.000192   0.489006
    14  C    0.002600   0.000038  -0.000006   0.000034   0.000565  -0.046904
    15  C    0.003869  -0.000105   0.000122  -0.000111   0.003644  -0.032304
    16  C    0.000607   0.000036  -0.000008   0.000044   0.002772  -0.051553
    17  C   -0.000204  -0.000000  -0.000000   0.000000   0.000931   0.456307
    18  H    0.000038   0.000000  -0.000000   0.000000   0.000002  -0.051060
    19  H   -0.002036   0.000056  -0.000000   0.000002   0.000046   0.002892
    20  H    0.000047   0.000002  -0.000000   0.000057  -0.001962   0.002914
    21  H    0.000002   0.000000  -0.000000   0.000000   0.000047  -0.023329
    22  C    0.000002   0.000000  -0.000000   0.000000   0.000004   0.144122
    23  C    0.000000   0.000000  -0.000000   0.000000  -0.000000  -0.098599
    24  H    0.000000   0.000000  -0.000000   0.000000   0.000000   0.019168
    25  H   -0.000000  -0.000000   0.000000  -0.000000  -0.000000  -0.004169
    26  H   -0.000000  -0.000000  -0.000000  -0.000000   0.000000  -0.005891
    27  C   -0.000001  -0.000000   0.000000  -0.000000  -0.000001  -0.081609
    28  H    0.000000   0.000000  -0.000000   0.000000  -0.000000   0.021620
    29  H    0.000000  -0.000000  -0.000000   0.000000   0.000000  -0.009639
    30  H   -0.000000   0.000000  -0.000000  -0.000000  -0.000000  -0.031404
    31  C    0.000000  -0.000000  -0.000000  -0.000000   0.000000  -0.084656
    32  H    0.000000   0.000000  -0.000000  -0.000000   0.000000   0.021458
    33  H    0.000000  -0.000000  -0.000000  -0.000000  -0.000000  -0.032159
    34  H   -0.000000   0.000000   0.000000  -0.000000   0.000000  -0.009504
              13         14         15         16         17         18
     1  C    0.010943  -0.082268   0.278810  -0.077439   0.008133  -0.000224
     2  C    0.002756  -0.002699  -0.077798   0.008722  -0.001081   0.000014
     3  C   -0.000032   0.001520   0.006249  -0.000671   0.000092  -0.000001
     4  C   -0.000031   0.000006  -0.002872  -0.000013  -0.000026  -0.000000
     5  C    0.000107  -0.000705   0.006428   0.001646  -0.000051  -0.000000
     6  C   -0.001221   0.009020  -0.077937  -0.002371   0.003139   0.000037
     7  H    0.001002   0.002600   0.003869   0.000607  -0.000204   0.000038
     8  H    0.000000   0.000038  -0.000105   0.000036  -0.000000   0.000000
     9  H   -0.000000  -0.000006   0.000122  -0.000008  -0.000000  -0.000000
    10  H   -0.000000   0.000034  -0.000111   0.000044   0.000000   0.000000
    11  H   -0.000192   0.000565   0.003644   0.002772   0.000931   0.000002
    12  C    0.489006  -0.046904  -0.032304  -0.051553   0.456307  -0.051060
    13  C    5.047162   0.490431  -0.050894  -0.059198  -0.016731   0.385237
    14  C    0.490431   5.004166   0.511459  -0.022249  -0.059159   0.004150
    15  C   -0.050894   0.511459   4.946870   0.517337  -0.059309   0.001746
    16  C   -0.059198  -0.022249   0.517337   5.019327   0.487263   0.000003
    17  C   -0.016731  -0.059159  -0.059309   0.487263   5.027431   0.003247
    18  H    0.385237   0.004150   0.001746   0.000003   0.003247   0.489936
    19  H   -0.012109   0.385854  -0.033092   0.005544  -0.000016  -0.002737
    20  H   -0.000144   0.006041  -0.033236   0.381758  -0.008347   0.000064
    21  H    0.002313   0.000216   0.001883  -0.008526   0.389187  -0.000247
    22  C   -0.037531   0.008358  -0.003927   0.014798  -0.060426   0.015905
    23  C    0.015526  -0.000149  -0.000081  -0.002633  -0.014276   0.000220
    24  H   -0.000613   0.000016   0.000010   0.000003   0.000021  -0.000020
    25  H   -0.000267  -0.000063  -0.000101  -0.000073  -0.003798  -0.000003
    26  H   -0.000698   0.000017  -0.000030  -0.000148  -0.002535  -0.000010
    27  C   -0.021277   0.004076  -0.000978  -0.000133   0.001999  -0.005076
    28  H    0.000841  -0.000089   0.000027  -0.000004  -0.000681  -0.000025
    29  H   -0.004265   0.000234  -0.000180  -0.000046   0.003351   0.000174
    30  H    0.005625   0.000857   0.000029  -0.000016  -0.000140   0.000129
    31  C   -0.021209   0.004129  -0.000601  -0.000855   0.004374  -0.005327
    32  H    0.000977  -0.000108   0.000031  -0.000009  -0.000685   0.000016
    33  H    0.006387   0.000794   0.000068   0.000038  -0.000418   0.000162
    34  H   -0.004580   0.000164  -0.000205   0.000038   0.003544   0.000167
              19         20         21         22         23         24
     1  C   -0.000360  -0.000348  -0.000027  -0.000725  -0.000045   0.000000
     2  C    0.002748   0.000182   0.000040   0.000012   0.000001   0.000000
     3  C    0.000715  -0.000117  -0.000000  -0.000000  -0.000000   0.000000
     4  C   -0.000071  -0.000075  -0.000000  -0.000000   0.000000  -0.000000
     5  C   -0.000119   0.000747   0.000000  -0.000000  -0.000000   0.000000
     6  C    0.000195   0.002985  -0.000009   0.000023   0.000003  -0.000000
     7  H   -0.002036   0.000047   0.000002   0.000002   0.000000   0.000000
     8  H    0.000056   0.000002   0.000000   0.000000   0.000000   0.000000
     9  H   -0.000000  -0.000000  -0.000000  -0.000000  -0.000000  -0.000000
    10  H    0.000002   0.000057   0.000000   0.000000   0.000000   0.000000
    11  H    0.000046  -0.001962   0.000047   0.000004  -0.000000   0.000000
    12  C    0.002892   0.002914  -0.023329   0.144122  -0.098599   0.019168
    13  C   -0.012109  -0.000144   0.002313  -0.037531   0.015526  -0.000613
    14  C    0.385854   0.006041   0.000216   0.008358  -0.000149   0.000016
    15  C   -0.033092  -0.033236   0.001883  -0.003927  -0.000081   0.000010
    16  C    0.005544   0.381758  -0.008526   0.014798  -0.002633   0.000003
    17  C   -0.000016  -0.008347   0.389187  -0.060426  -0.014276   0.000021
    18  H   -0.002737   0.000064  -0.000247   0.015905   0.000220  -0.000020
    19  H    0.489341  -0.000222   0.000067   0.000027   0.000017  -0.000000
    20  H   -0.000222   0.490870  -0.002563  -0.000349   0.000167  -0.000001
    21  H    0.000067  -0.002563   0.493403  -0.010769  -0.000356   0.000651
    22  C    0.000027  -0.000349  -0.010769   5.316671   0.295383  -0.037828
    23  C    0.000017   0.000167  -0.000356   0.295383   5.306855   0.416595
    24  H   -0.000000  -0.000001   0.000651  -0.037828   0.416595   0.504092
    25  H   -0.000000   0.000020  -0.004014  -0.036216   0.416254  -0.020589
    26  H   -0.000000   0.000002  -0.003803  -0.034927   0.415356  -0.020509
    27  C   -0.000008   0.000030  -0.000052   0.324926  -0.103708  -0.012102
    28  H   -0.000002  -0.000001  -0.000053  -0.040681  -0.013062   0.002705
    29  H    0.000010   0.000004   0.000170  -0.026476  -0.011938   0.000161
    30  H    0.000001  -0.000001   0.000006  -0.006572   0.014247  -0.000018
    31  C    0.000006   0.000009   0.000154   0.325112  -0.104452  -0.011954
    32  H   -0.000003  -0.000001  -0.000056  -0.040575  -0.012984   0.002672
    33  H   -0.000005  -0.000001   0.000001  -0.005974   0.014270  -0.000021
    34  H    0.000010   0.000005   0.000176  -0.026513  -0.011975   0.000144
              25         26         27         28         29         30
     1  C   -0.000001  -0.000007  -0.000032   0.000001  -0.000006  -0.000004
     2  C    0.000000  -0.000000  -0.000003  -0.000000   0.000000  -0.000000
     3  C   -0.000000   0.000000  -0.000000   0.000000   0.000000  -0.000000
     4  C    0.000000   0.000000   0.000000  -0.000000  -0.000000   0.000000
     5  C   -0.000000   0.000000  -0.000000   0.000000  -0.000000  -0.000000
     6  C   -0.000001   0.000001  -0.000004   0.000000   0.000000   0.000000
     7  H   -0.000000  -0.000000  -0.000001   0.000000   0.000000  -0.000000
     8  H   -0.000000  -0.000000  -0.000000   0.000000  -0.000000   0.000000
     9  H    0.000000  -0.000000   0.000000  -0.000000  -0.000000  -0.000000
    10  H   -0.000000  -0.000000  -0.000000   0.000000   0.000000  -0.000000
    11  H   -0.000000   0.000000  -0.000001  -0.000000   0.000000  -0.000000
    12  C   -0.004169  -0.005891  -0.081609   0.021620  -0.009639  -0.031404
    13  C   -0.000267  -0.000698  -0.021277   0.000841  -0.004265   0.005625
    14  C   -0.000063   0.000017   0.004076  -0.000089   0.000234   0.000857
    15  C   -0.000101  -0.000030  -0.000978   0.000027  -0.000180   0.000029
    16  C   -0.000073  -0.000148  -0.000133  -0.000004  -0.000046  -0.000016
    17  C   -0.003798  -0.002535   0.001999  -0.000681   0.003351  -0.000140
    18  H   -0.000003  -0.000010  -0.005076  -0.000025   0.000174   0.000129
    19  H   -0.000000  -0.000000  -0.000008  -0.000002   0.000010   0.000001
    20  H    0.000020   0.000002   0.000030  -0.000001   0.000004  -0.000001
    21  H   -0.004014  -0.003803  -0.000052  -0.000053   0.000170   0.000006
    22  C   -0.036216  -0.034927   0.324926  -0.040681  -0.026476  -0.006572
    23  C    0.416254   0.415356  -0.103708  -0.013062  -0.011938   0.014247
    24  H   -0.020589  -0.020509  -0.012102   0.002705   0.000161  -0.000018
    25  H    0.511528  -0.028915   0.014832  -0.000018  -0.000288  -0.000412
    26  H   -0.028915   0.511913  -0.012883   0.000178   0.002908  -0.000153
    27  C    0.014832  -0.012883   5.212451   0.409371   0.409285   0.400826
    28  H   -0.000018   0.000178   0.409371   0.527569  -0.025118  -0.025624
    29  H   -0.000288   0.002908   0.409285  -0.025118   0.513241  -0.022615
    30  H   -0.000412  -0.000153   0.400826  -0.025624  -0.022615   0.531410
    31  C   -0.012993   0.014906  -0.112320  -0.007103   0.013947  -0.013369
    32  H    0.000193  -0.000021  -0.007089   0.000910  -0.000201   0.000175
    33  H   -0.000145  -0.000414  -0.013310   0.000179  -0.000180   0.002707
    34  H    0.002886  -0.000283   0.013894  -0.000198  -0.000376  -0.000173
              31         32         33         34
     1  C   -0.000069   0.000001  -0.000008  -0.000002
     2  C    0.000001   0.000000   0.000002  -0.000001
     3  C    0.000000  -0.000000   0.000000  -0.000000
     4  C    0.000000  -0.000000   0.000000   0.000000
     5  C   -0.000000   0.000000  -0.000000   0.000000
     6  C    0.000002  -0.000000  -0.000000   0.000000
     7  H    0.000000   0.000000   0.000000  -0.000000
     8  H   -0.000000   0.000000  -0.000000   0.000000
     9  H   -0.000000  -0.000000  -0.000000   0.000000
    10  H   -0.000000  -0.000000  -0.000000  -0.000000
    11  H    0.000000   0.000000  -0.000000   0.000000
    12  C   -0.084656   0.021458  -0.032159  -0.009504
    13  C   -0.021209   0.000977   0.006387  -0.004580
    14  C    0.004129  -0.000108   0.000794   0.000164
    15  C   -0.000601   0.000031   0.000068  -0.000205
    16  C   -0.000855  -0.000009   0.000038   0.000038
    17  C    0.004374  -0.000685  -0.000418   0.003544
    18  H   -0.005327   0.000016   0.000162   0.000167
    19  H    0.000006  -0.000003  -0.000005   0.000010
    20  H    0.000009  -0.000001  -0.000001   0.000005
    21  H    0.000154  -0.000056   0.000001   0.000176
    22  C    0.325112  -0.040575  -0.005974  -0.026513
    23  C   -0.104452  -0.012984   0.014270  -0.011975
    24  H   -0.011954   0.002672  -0.000021   0.000144
    25  H   -0.012993   0.000193  -0.000145   0.002886
    26  H    0.014906  -0.000021  -0.000414  -0.000283
    27  C   -0.112320  -0.007089  -0.013310   0.013894
    28  H   -0.007103   0.000910   0.000179  -0.000198
    29  H    0.013947  -0.000201  -0.000180  -0.000376
    30  H   -0.013369   0.000175   0.002707  -0.000173
    31  C    5.214594   0.409178   0.400232   0.409364
    32  H    0.409178   0.527532  -0.025613  -0.025063
    33  H    0.400232  -0.025613   0.531886  -0.022637
    34  H    0.409364  -0.025063  -0.022637   0.513034
 Mulliken charges:
               1
     1  C    0.111753
     2  C   -0.212039
     3  C   -0.151710
     4  C   -0.147392
     5  C   -0.152075
     6  C   -0.211518
     7  H    0.163080
     8  H    0.143356
     9  H    0.140931
    10  H    0.143368
    11  H    0.162791
    12  C    0.129244
    13  C   -0.227320
    14  C   -0.220344
    15  C    0.095178
    16  C   -0.213991
    17  C   -0.161136
    18  H    0.163485
    19  H    0.163251
    20  H    0.161466
    21  H    0.165490
    22  C   -0.075850
    23  C   -0.520637
    24  H    0.157420
    25  H    0.166354
    26  H    0.165947
    27  C   -0.421103
    28  H    0.149259
    29  H    0.157843
    30  H    0.144491
    31  C   -0.421099
    32  H    0.149264
    33  H    0.144160
    34  H    0.158084
 Sum of Mulliken charges =  -0.00000
 Mulliken charges with hydrogens summed into heavy atoms:
               1
     1  C    0.111753
     2  C   -0.048959
     3  C   -0.008354
     4  C   -0.006461
     5  C   -0.008707
     6  C   -0.048727
    12  C    0.129244
    13  C   -0.063836
    14  C   -0.057094
    15  C    0.095178
    16  C   -0.052525
    17  C    0.004355
    22  C   -0.075850
    23  C   -0.030916
    27  C    0.030490
    31  C    0.030409
 Electronic spatial extent (au):  <R**2>=           5264.7066
 Charge=             -0.0000 electrons
 Dipole moment (field-independent basis, Debye):
    X=              0.4631    Y=             -0.0077    Z=              0.0034  Tot=              0.4631
 Quadrupole moment (field-independent basis, Debye-Ang):
   XX=            -87.9321   YY=            -90.4112   ZZ=           -102.3712
   XY=              0.0410   XZ=             -0.0351   YZ=              0.1642
 Traceless Quadrupole moment (field-independent basis, Debye-Ang):
   XX=              5.6394   YY=              3.1603   ZZ=             -8.7997
   XY=              0.0410   XZ=             -0.0351   YZ=              0.1642
 Octapole moment (field-independent basis, Debye-Ang**2):
  XXX=            -21.4869  YYY=             -0.4502  ZZZ=             -1.1462  XYY=            -10.5008
  XXY=              0.3636  XXZ=              0.0547  XZZ=             11.5476  YZZ=              0.7449
  YYZ=              1.0164  XYZ=            -10.9094
 Hexadecapole moment (field-independent basis, Debye-Ang**3):
 XXXX=          -5910.4913 YYYY=           -714.1580 ZZZZ=           -364.6508 XXXY=              2.8677
 XXXZ=             -2.1529 YYYX=             -1.8372 YYYZ=              0.1530 ZZZX=             -3.9755
 ZZZY=              0.4230 XXYY=          -1134.0563 XXZZ=          -1181.1602 YYZZ=           -184.3325
 XXYZ=             39.3471 YYXZ=              3.8680 ZZXY=              2.4168
 N-N= 9.967418171437D+02 E-N=-3.430882957604D+03  KE= 6.170489095227D+02
 ******************************Gaussian NBO Version 3.1******************************
             N A T U R A L   A T O M I C   O R B I T A L   A N D
          N A T U R A L   B O N D   O R B I T A L   A N A L Y S I S
 ******************************Gaussian NBO Version 3.1******************************
       /RESON  / : Allow strongly delocalized NBO set

 Analyzing the SCF density

 Job title: Structure697                                                    

 Storage needed:   1098554 in NPA,   1462263 in NBO (1048569880 available)
 GSVD:  LWork=      141712 too small for GESVD, short by      301508 words or      301508 for optimal perf.


 NATURAL POPULATIONS:  Natural atomic orbital occupancies 
                                                          
   NAO  Atom  No  lang   Type(AO)    Occupancy      Energy
 ----------------------------------------------------------
     1    C    1  S      Cor( 1S)     1.99911     -10.38943
     2    C    1  S      Val( 2S)     0.91093      -0.19930
     3    C    1  S      Ryd( 3S)     0.00078       1.57130
     4    C    1  S      Ryd( 4S)     0.00007       1.59084
     5    C    1  S      Ryd( 5S)     0.00000      21.40727
     6    C    1  px     Val( 2p)     1.04171      -0.05293
     7    C    1  px     Ryd( 3p)     0.00632       1.25360
     8    C    1  px     Ryd( 4p)     0.00046       1.90293
     9    C    1  py     Val( 2p)     1.06722      -0.07132
    10    C    1  py     Ryd( 3p)     0.00413       1.14440
    11    C    1  py     Ryd( 4p)     0.00045       1.49967
    12    C    1  pz     Val( 2p)     1.00692      -0.10457
    13    C    1  pz     Ryd( 3p)     0.00174       0.81906
    14    C    1  pz     Ryd( 4p)     0.00017       1.34543
    15    C    1  dxy    Ryd( 3d)     0.00149       2.32225
    16    C    1  dxy    Ryd( 4d)     0.00042       3.42542
    17    C    1  dxz    Ryd( 3d)     0.00036       1.35850
    18    C    1  dxz    Ryd( 4d)     0.00029       3.36153
    19    C    1  dyz    Ryd( 3d)     0.00020       1.49880
    20    C    1  dyz    Ryd( 4d)     0.00032       3.36717
    21    C    1  dx2y2  Ryd( 3d)     0.00119       2.42992
    22    C    1  dx2y2  Ryd( 4d)     0.00056       3.45677
    23    C    1  dz2    Ryd( 3d)     0.00040       1.74273
    24    C    1  dz2    Ryd( 4d)     0.00026       3.55481
    25    C    1  f(0)   Ryd( 4f)     0.00010       3.61310
    26    C    1  f(C1)  Ryd( 4f)     0.00008       3.72381
    27    C    1  f(S1)  Ryd( 4f)     0.00008       3.55910
    28    C    1  f(C2)  Ryd( 4f)     0.00004       3.68218
    29    C    1  f(S2)  Ryd( 4f)     0.00004       3.75018
    30    C    1  f(C3)  Ryd( 4f)     0.00009       4.30274
    31    C    1  f(S3)  Ryd( 4f)     0.00004       4.26534
 
    32    C    2  S      Cor( 1S)     1.99916     -10.37975
    33    C    2  S      Val( 2S)     0.96949      -0.22569
    34    C    2  S      Ryd( 3S)     0.00092       1.43370
    35    C    2  S      Ryd( 4S)     0.00011       1.48311
    36    C    2  S      Ryd( 5S)     0.00001      21.32953
    37    C    2  px     Val( 2p)     1.07971      -0.06540
    38    C    2  px     Ryd( 3p)     0.00310       1.16685
    39    C    2  px     Ryd( 4p)     0.00017       2.42056
    40    C    2  py     Val( 2p)     1.11743      -0.06942
    41    C    2  py     Ryd( 3p)     0.00384       1.05727
    42    C    2  py     Ryd( 4p)     0.00024       2.51247
    43    C    2  pz     Val( 2p)     1.01467      -0.10882
    44    C    2  pz     Ryd( 3p)     0.00164       0.72035
    45    C    2  pz     Ryd( 4p)     0.00033       1.58537
    46    C    2  dxy    Ryd( 3d)     0.00165       1.79610
    47    C    2  dxy    Ryd( 4d)     0.00069       3.52861
    48    C    2  dxz    Ryd( 3d)     0.00032       1.46009
    49    C    2  dxz    Ryd( 4d)     0.00026       3.07438
    50    C    2  dyz    Ryd( 3d)     0.00058       1.47331
    51    C    2  dyz    Ryd( 4d)     0.00013       3.09098
    52    C    2  dx2y2  Ryd( 3d)     0.00152       1.78056
    53    C    2  dx2y2  Ryd( 4d)     0.00042       3.44315
    54    C    2  dz2    Ryd( 3d)     0.00084       1.53376
    55    C    2  dz2    Ryd( 4d)     0.00005       3.26425
    56    C    2  f(0)   Ryd( 4f)     0.00026       3.45598
    57    C    2  f(C1)  Ryd( 4f)     0.00013       3.55879
    58    C    2  f(S1)  Ryd( 4f)     0.00021       3.40774
    59    C    2  f(C2)  Ryd( 4f)     0.00007       3.55551
    60    C    2  f(S2)  Ryd( 4f)     0.00007       3.57631
    61    C    2  f(C3)  Ryd( 4f)     0.00011       4.21486
    62    C    2  f(S3)  Ryd( 4f)     0.00006       3.95552
 
    63    C    3  S      Cor( 1S)     1.99924     -10.38085
    64    C    3  S      Val( 2S)     0.97546      -0.23256
    65    C    3  S      Ryd( 3S)     0.00087       1.16283
    66    C    3  S      Ryd( 4S)     0.00009       1.33043
    67    C    3  S      Ryd( 5S)     0.00000      21.62806
    68    C    3  px     Val( 2p)     1.07671      -0.06285
    69    C    3  px     Ryd( 3p)     0.00386       1.05261
    70    C    3  px     Ryd( 4p)     0.00026       2.19937
    71    C    3  py     Val( 2p)     1.12579      -0.07338
    72    C    3  py     Ryd( 3p)     0.00417       1.11593
    73    C    3  py     Ryd( 4p)     0.00017       2.05229
    74    C    3  pz     Val( 2p)     1.00967      -0.10938
    75    C    3  pz     Ryd( 3p)     0.00171       0.75510
    76    C    3  pz     Ryd( 4p)     0.00033       1.43300
    77    C    3  dxy    Ryd( 3d)     0.00117       1.84971
    78    C    3  dxy    Ryd( 4d)     0.00066       3.50314
    79    C    3  dxz    Ryd( 3d)     0.00028       1.44650
    80    C    3  dxz    Ryd( 4d)     0.00024       3.03099
    81    C    3  dyz    Ryd( 3d)     0.00053       1.43457
    82    C    3  dyz    Ryd( 4d)     0.00016       3.04987
    83    C    3  dx2y2  Ryd( 3d)     0.00176       1.69624
    84    C    3  dx2y2  Ryd( 4d)     0.00053       3.39433
    85    C    3  dz2    Ryd( 3d)     0.00061       1.51527
    86    C    3  dz2    Ryd( 4d)     0.00008       3.21493
    87    C    3  f(0)   Ryd( 4f)     0.00022       3.43018
    88    C    3  f(C1)  Ryd( 4f)     0.00014       3.56903
    89    C    3  f(S1)  Ryd( 4f)     0.00017       3.36306
    90    C    3  f(C2)  Ryd( 4f)     0.00006       3.54958
    91    C    3  f(S2)  Ryd( 4f)     0.00005       3.53346
    92    C    3  f(C3)  Ryd( 4f)     0.00006       4.20444
    93    C    3  f(S3)  Ryd( 4f)     0.00006       3.90638
 
    94    C    4  S      Cor( 1S)     1.99924     -10.37927
    95    C    4  S      Val( 2S)     0.97600      -0.23283
    96    C    4  S      Ryd( 3S)     0.00087       1.18809
    97    C    4  S      Ryd( 4S)     0.00008       1.33514
    98    C    4  S      Ryd( 5S)     0.00000      21.62250
    99    C    4  px     Val( 2p)     1.16971      -0.06921
   100    C    4  px     Ryd( 3p)     0.00458       1.19280
   101    C    4  px     Ryd( 4p)     0.00016       2.10220
   102    C    4  py     Val( 2p)     1.04437      -0.06661
   103    C    4  py     Ryd( 3p)     0.00348       0.97299
   104    C    4  py     Ryd( 4p)     0.00032       2.18266
   105    C    4  pz     Val( 2p)     1.00672      -0.10899
   106    C    4  pz     Ryd( 3p)     0.00189       0.71988
   107    C    4  pz     Ryd( 4p)     0.00040       1.44398
   108    C    4  dxy    Ryd( 3d)     0.00175       1.70566
   109    C    4  dxy    Ryd( 4d)     0.00049       3.27253
   110    C    4  dxz    Ryd( 3d)     0.00048       1.38853
   111    C    4  dxz    Ryd( 4d)     0.00012       2.84707
   112    C    4  dyz    Ryd( 3d)     0.00040       1.57922
   113    C    4  dyz    Ryd( 4d)     0.00019       3.13673
   114    C    4  dx2y2  Ryd( 3d)     0.00090       1.95463
   115    C    4  dx2y2  Ryd( 4d)     0.00072       3.48859
   116    C    4  dz2    Ryd( 3d)     0.00056       1.58356
   117    C    4  dz2    Ryd( 4d)     0.00014       3.18010
   118    C    4  f(0)   Ryd( 4f)     0.00016       3.41296
   119    C    4  f(C1)  Ryd( 4f)     0.00019       3.46880
   120    C    4  f(S1)  Ryd( 4f)     0.00016       3.50140
   121    C    4  f(C2)  Ryd( 4f)     0.00005       3.43409
   122    C    4  f(S2)  Ryd( 4f)     0.00008       3.62833
   123    C    4  f(C3)  Ryd( 4f)     0.00005       4.19194
   124    C    4  f(S3)  Ryd( 4f)     0.00007       3.87600
 
   125    C    5  S      Cor( 1S)     1.99924     -10.38087
   126    C    5  S      Val( 2S)     0.97550      -0.23261
   127    C    5  S      Ryd( 3S)     0.00087       1.16376
   128    C    5  S      Ryd( 4S)     0.00008       1.32405
   129    C    5  S      Ryd( 5S)     0.00000      21.63307
   130    C    5  px     Val( 2p)     1.07768      -0.06293
   131    C    5  px     Ryd( 3p)     0.00387       1.05517
   132    C    5  px     Ryd( 4p)     0.00027       2.19575
   133    C    5  py     Val( 2p)     1.12470      -0.07330
   134    C    5  py     Ryd( 3p)     0.00416       1.11509
   135    C    5  py     Ryd( 4p)     0.00017       2.05605
   136    C    5  pz     Val( 2p)     1.00977      -0.10938
   137    C    5  pz     Ryd( 3p)     0.00171       0.75666
   138    C    5  pz     Ryd( 4p)     0.00033       1.43214
   139    C    5  dxy    Ryd( 3d)     0.00116       1.84678
   140    C    5  dxy    Ryd( 4d)     0.00067       3.51135
   141    C    5  dxz    Ryd( 3d)     0.00028       1.43804
   142    C    5  dxz    Ryd( 4d)     0.00025       3.03689
   143    C    5  dyz    Ryd( 3d)     0.00052       1.42809
   144    C    5  dyz    Ryd( 4d)     0.00016       3.05836
   145    C    5  dx2y2  Ryd( 3d)     0.00178       1.68782
   146    C    5  dx2y2  Ryd( 4d)     0.00052       3.39734
   147    C    5  dz2    Ryd( 3d)     0.00062       1.50866
   148    C    5  dz2    Ryd( 4d)     0.00008       3.22168
   149    C    5  f(0)   Ryd( 4f)     0.00022       3.43032
   150    C    5  f(C1)  Ryd( 4f)     0.00014       3.56778
   151    C    5  f(S1)  Ryd( 4f)     0.00017       3.36376
   152    C    5  f(C2)  Ryd( 4f)     0.00006       3.55112
   153    C    5  f(S2)  Ryd( 4f)     0.00005       3.53208
   154    C    5  f(C3)  Ryd( 4f)     0.00006       4.20507
   155    C    5  f(S3)  Ryd( 4f)     0.00007       3.90643
 
   156    C    6  S      Cor( 1S)     1.99916     -10.37973
[...]
 938,0.00008418,-0.00003863,-0.00000503,0.00012708,0.00001130,-0.000016
 86,-0.00000005,0.00001980,-0.00000974,-0.00000400,0.00000686,-0.000027
 28,0.00004721,-0.00990013,-0.02192990,-0.01056099,-0.00019703,0.000738
 32,-0.00152973,0.00006692,-0.00006157,0.00009342,0.00027359,0.00036369
 ,0.00003558,-0.00002894,0.00040094,0.00092471,-0.08794332,-0.23233827,
 -0.08703672,0.00125996,0.00273224,0.00165738,0.09550224,0.25512994,-0.
 00001750,-0.00000716,0.00000857,0.00001224,-0.00000310,-0.00000238,-0.
 00000103,0.00000441,-0.00000183,0.00000876,0.00000188,-0.00000019,0.00
 000355,0.00000183,-0.00000160,0.00001144,0.00000041,-0.00000857,-0.000
 00277,0.00000018,0.00000382,0.00000142,-0.00000157,-0.00000012,0.00000
 110,-0.00000113,0.00000132,0.00000297,-0.00000076,0.00000235,-0.000002
 01,-0.00000447,0.00000646,0.00061219,-0.00008890,0.00058645,-0.0001064
 5,-0.00008558,-0.00045104,0.00022892,0.00010453,0.00019735,0.00006454,
 -0.00000480,-0.00014856,-0.00014098,0.00001601,0.00004957,0.00025208,-
 0.00017582,0.00005431,-0.00008368,-0.00006907,0.00013058,-0.00000557,-
 0.00002157,-0.00001092,0.00000513,0.00000377,0.00000641,-0.00002748,0.
 00001929,-0.00004404,0.00711824,0.01408521,0.00547059,0.00039160,0.000
 70672,0.00146779,0.00008947,-0.00004511,-0.00004694,-0.00001842,-0.000
 21698,0.00015223,-0.00023437,-0.00004210,-0.00031775,-0.04100460,-0.08
 830415,-0.08793804,0.00100556,0.00250843,-0.00011294,0.04592765,0.0933
 6958,0.09265059,-0.00005853,0.00000938,0.00002885,0.00002451,-0.000001
 92,0.00000310,-0.00000334,0.00000388,0.00000372,0.00001814,-0.00000044
 ,-0.00000093,-0.00000183,-0.00000657,0.00000106,0.00003082,-0.00000244
 ,-0.00000812,-0.00000687,0.00000871,0.00000271,0.00000518,-0.00000231,
 -0.00000325,0.00000440,0.00000053,-0.00000090,0.00000575,0.00000206,0.
 00000187,-0.00000738,-0.00000325,-0.00000649,0.00081431,-0.00077155,-0
 .00036803,-0.00073077,0.00051454,-0.00023323,-0.00025314,-0.00002453,0
 .00001116,0.00002097,-0.00003852,0.00019626,0.00022678,0.00006238,-0.0
 0008183,-0.00021325,-0.00005490,-0.00003706,-0.00113403,0.00131461,0.0
 0013539,0.00000073,0.00004747,-0.00000900,0.00001006,-0.00000272,0.000
 00792,0.00004825,0.00000137,0.00004315,0.00138597,-0.00109897,-0.01021
 808,-0.00064319,0.00137753,-0.00086837,0.00049011,0.00006855,-0.000247
 79,0.00073790,0.00018524,-0.00048234,-0.00008786,0.00016460,0.00023061
 ,-0.06763463,0.00513808,0.07328939,-0.00762577,0.00257797,0.03096867,0
 .00319033,-0.00032923,-0.01317286,0.07131271,0.00002628,-0.00001856,-0
 .00003279,-0.00000780,0.00000123,0.00000345,0.00000036,-0.00000222,-0.
 00000082,-0.00001051,-0.00000052,0.00000093,-0.00000164,0.00000182,-0.
 00000250,-0.00002347,-0.00000062,0.00000635,0.00000401,-0.00000223,-0.
 00000127,-0.00000205,0.00000216,0.00000077,-0.00000215,0.00000005,0.00
 000021,-0.00000369,-0.00000044,-0.00000179,0.00000398,0.00000185,0.000
 00154,-0.00096535,0.00062196,-0.00062731,0.00022792,-0.00024115,0.0004
 7577,0.00018776,-0.00003219,-0.00017031,-0.00009181,0.00002765,-0.0002
 4650,-0.00025019,0.00000094,0.00009995,0.00026185,0.00017278,0.0001353
 9,0.00115834,-0.00064663,-0.00027917,0.00001390,-0.00000090,0.00001493
 ,-0.00000603,-0.00002759,0.00000230,-0.00007474,-0.00003433,-0.0000406
 5,-0.00820561,0.00129969,0.02449230,0.00193538,-0.00438500,0.00232579,
 0.00003563,-0.00013854,-0.00018938,-0.00034133,0.00033451,0.00177400,0
 .00018006,0.00016784,0.00021567,0.00551271,-0.04801621,-0.02028946,0.0
 0018684,-0.00132279,-0.00145645,0.00878789,-0.00133113,-0.02554560,-0.
 00841389,0.05178865,-0.00002074,0.00005428,0.00006495,-0.00000617,-0.0
 0000845,-0.00000320,-0.00000088,-0.00000172,0.00000912,0.00000547,-0.0
 0000186,0.00000015,-0.00000002,0.00000019,0.00000636,0.00003571,-0.000
 00637,-0.00000568,-0.00000383,0.00001229,-0.00000197,0.00000117,0.0000
 0035,-0.00000241,0.00000288,0.00000186,-0.00000208,0.00000520,0.000002
 29,-0.00000011,-0.00000458,-0.00000071,-0.00000835,0.00152390,-0.00011
 371,0.00023248,0.00051019,-0.00084546,-0.00053876,-0.00051229,-0.00022
 901,0.00029619,0.00005498,0.00014372,0.00042895,0.00049391,-0.00003629
 ,-0.00009899,-0.00058838,-0.00005546,-0.00030631,0.00058971,-0.0000928
 1,0.00081381,-0.00003800,-0.00003577,-0.00000297,-0.00001172,0.0000036
 0,0.00000017,0.00011931,0.00000856,0.00011667,0.00449353,-0.00216769,-
 0.01635320,-0.00197921,0.00386454,-0.00073413,0.00000356,-0.00010521,0
 .00024884,0.00046378,0.00010046,-0.00111786,-0.00002400,-0.00005804,0.
 00036517,0.07132923,-0.01873912,-0.29394294,-0.00007669,-0.00011534,0.
 00011010,0.00346930,-0.00035055,-0.01084244,-0.07970186,0.01919878,0.3
 1991759,0.00026416,-0.00004254,0.00001498,-0.00009095,-0.00003179,-0.0
 0005024,-0.00004952,-0.00005402,-0.00000774,-0.00009722,0.00004852,0.0
 0004772,0.00006977,0.00001613,-0.00001924,-0.00017995,0.00000007,0.000
 05670,0.00001682,-0.00000032,-0.00001650,-0.00002398,0.00000735,0.0000
 1325,-0.00001148,0.00000344,0.00000057,-0.00002324,-0.00000870,-0.0000
 0772,0.00002410,0.00001316,0.00000618,-0.02316866,-0.02877237,-0.01507
 473,-0.00185860,-0.00086096,-0.00010668,0.00107830,0.00027893,-0.00046
 524,-0.00042652,-0.00009958,-0.00087004,-0.00106328,0.00172013,-0.0000
 9546,-0.00187640,-0.00012428,0.00228587,-0.00069768,-0.00015016,-0.000
 10562,0.00002882,-0.00011919,0.00007183,-0.00025883,0.00008018,-0.0000
 2047,-0.00009858,-0.00077750,-0.00007566,-0.09001186,-0.03808875,-0.01
 638196,0.00408342,0.00748425,0.00291550,0.00030840,0.00102593,0.001219
 99,-0.00001551,-0.00013711,-0.00022047,-0.00070894,0.00104088,0.002822
 05,0.00456156,0.00650381,0.00413382,0.00034420,0.00117289,0.00007728,-
 0.00039660,0.00274926,-0.00098434,0.00000984,-0.00030853,-0.00003998,0
 .56095018,-0.00024078,0.00001648,-0.00000971,0.00010294,-0.00000169,0.
 00001247,-0.00000279,0.00001829,-0.00000394,0.00006776,-0.00001259,-0.
 00001151,-0.00002680,-0.00001938,0.00000783,0.00010728,0.00000186,-0.0
 0001141,-0.00000834,0.00000744,0.00000032,0.00001473,-0.00000507,-0.00
 000884,0.00000717,-0.00000054,-0.00000165,0.00001403,0.00000561,0.0000
 0442,-0.00001418,-0.00000800,-0.00000815,-0.00883397,0.00046315,0.0008
 7502,0.00145804,0.00022011,-0.00042841,-0.00031453,-0.00002944,-0.0004
 1555,0.00037223,0.00006327,0.00014220,-0.00000218,-0.00026656,0.000219
 54,0.00194762,-0.00067310,0.00039873,-0.00019553,-0.00000099,-0.000205
 87,0.00008706,-0.00007665,-0.00003102,0.00015900,0.00005820,0.00002459
 ,-0.00008694,0.00020226,0.00008428,-0.03103973,-0.14500121,-0.03454544
 ,-0.00103165,-0.00728425,-0.00877591,-0.00044493,0.00008097,0.00079335
 ,-0.00020044,0.00097764,0.00168746,0.00020491,0.00087417,0.00060903,-0
 .01017970,-0.03599456,-0.00959112,-0.00084735,0.00144169,-0.00093259,0
 .00165832,-0.00363356,0.00268608,-0.00053869,0.00204069,-0.00113674,-0
 .04287189,0.50256421,-0.00017596,-0.00002439,-0.00002571,0.00007063,0.
 00001459,0.00000318,-0.00000485,0.00002094,-0.00001305,0.00003978,-0.0
 0000632,-0.00000788,-0.00002009,-0.00001947,0.00000810,0.00005865,-0.0
 0000422,-0.00000412,0.00000138,-0.00001341,0.00001232,0.00000847,-0.00
 000462,-0.00000163,0.00000178,-0.00000140,0.00000024,0.00000620,0.0000
 0262,0.00000177,-0.00000343,0.00000339,-0.00000792,-0.00600000,0.00077
 241,0.00005502,0.00187801,-0.00052610,0.00035174,-0.00052450,0.0000107
 5,-0.00038444,0.00030539,0.00016339,0.00022104,-0.00009688,-0.00000140
 ,-0.00015418,0.00053460,-0.00005658,0.00002144,0.00014856,0.00026165,-
 0.00051956,0.00005706,-0.00009595,-0.00000791,0.00005475,-0.00003116,-
 0.00000334,0.00017225,-0.00018139,0.00007314,-0.01327104,-0.03498217,-
 0.09130303,-0.01171784,-0.03222990,-0.02270570,-0.00117382,0.00003474,
 0.00117134,-0.00042027,-0.00058576,0.00128836,0.00168387,-0.00110175,-
 0.00607111,0.00677255,0.01549474,0.00688849,0.00038878,-0.00028377,0.0
 0015549,-0.00101877,0.00405991,-0.00167679,0.00034742,0.00090062,0.000
 62638,-0.02013058,-0.03707700,0.57084375,0.00013394,-0.00000193,-0.000
 01192,-0.00006503,-0.00000008,-0.00001819,-0.00000467,-0.00002283,-0.0
 0000436,-0.00005157,0.00000863,0.00000840,0.00001158,0.00001668,-0.000
 00005,-0.00007614,0.00000362,0.00002989,0.00001459,-0.00001062,-0.0000
 1232,-0.00001304,0.00000616,0.00000801,-0.00001029,0.00000057,0.000000
 75,-0.00001466,-0.00000501,-0.00000593,0.00001738,0.00001027,0.0000086
 5,-0.00000370,-0.00278520,-0.00154602,-0.00011786,-0.00015236,-0.00034
 016,0.00022848,-0.00000100,0.00000393,-0.00003386,-0.00003866,-0.00027
 484,-0.00034488,0.00019239,0.00001049,-0.00006413,-0.00026852,0.000648
 69,0.00006379,0.00014633,-0.00003354,-0.00004058,0.00000346,0.00002813
 ,-0.00007435,0.00004496,-0.00000997,-0.00001076,-0.00005065,-0.0001024
 1,-0.01423253,0.00130697,0.00073127,0.00030456,0.00102784,0.00084596,0
 .00068880,-0.00014424,-0.00053468,-0.00010068,-0.00013503,-0.00003004,
 0.00046770,-0.00004503,0.00004267,0.00032637,0.00103820,0.00026696,0.0
 0053150,-0.00052448,0.00025332,0.00041422,-0.00002357,-0.00006931,-0.0
 0004917,-0.00009963,-0.00008618,-0.31138592,0.01538648,0.01132191,0.33
 922915,0.00008543,-0.00001640,0.00001006,-0.00003623,-0.00000916,-0.00
 001895,-0.00001021,-0.00001127,0.00000114,-0.00002921,0.00001160,0.000
 01214,0.00001910,0.00000649,-0.00000506,-0.00005230,0.00000007,0.00001
 422,0.00000202,-0.00000113,0.00000048,-0.00000741,0.00000198,0.0000035
 8,-0.00000232,0.00000113,0.00000047,-0.00000621,-0.00000202,-0.0000019
 3,0.00000635,0.00000384,0.00000210,-0.00092312,-0.00387844,-0.00271431
 ,-0.00040917,0.00022196,-0.00008084,0.00016119,0.00011078,0.00004116,-
 0.00015592,-0.00005982,-0.00016025,-0.00019286,0.00037318,-0.00012065,
 -0.00099182,0.00009994,0.00031395,0.00008618,-0.00006626,0.00012974,-0
 .00003198,-0.00001159,0.00002320,-0.00009304,0.00002349,-0.00000492,-0
 .00001978,-0.00018153,-0.00002400,-0.02730870,-0.00039081,0.00104415,-
 0.00066366,0.00082463,0.00111597,0.00042287,0.00000297,-0.00037314,0.0
 0018152,-0.00004516,-0.00007767,0.00012471,0.00004287,0.00031613,-0.00
 101677,0.00160937,0.00003700,0.00045967,-0.00054606,-0.00003996,0.0002
 8616,0.00029317,-0.00006148,0.00005924,-0.00008699,0.00009766,0.016998
 02,-0.04761595,0.00016903,-0.01543087,0.05123310,0.00003005,-0.0000543
 7,0.00002971,-0.00001776,-0.00000526,-0.00001538,-0.00000459,-0.000008
 83,0.00000263,-0.00001361,0.00000418,0.00000498,0.00000656,0.00000686,
 -0.00000641,-0.00002327,0.00000673,0.00001107,-0.00000057,0.00000391,-
 0.00000313,-0.00000306,0.00000074,0.00000142,-0.00000041,0.00000081,-0
 .00000023,-0.00000314,-0.00000102,-0.00000045,0.00000015,-0.00000154,0
 .00000056,0.00009558,-0.00246288,-0.00073026,0.00027536,0.00025380,-0.
 00022776,-0.00026130,0.00032419,-0.00000967,-0.00003575,-0.00003126,0.
 00025737,0.00026858,0.00023214,-0.00009495,-0.00066707,0.00010175,0.00
 005993,-0.00003660,-0.00036721,0.00039767,-0.00002046,0.00002161,0.000
 00420,-0.00004201,-0.00002860,-0.00000567,-0.00004590,-0.00010116,0.00
 000189,-0.01342394,-0.00013953,-0.00116211,-0.00123583,0.00022546,0.00
 057212,0.00018217,-0.00055846,-0.00028772,-0.00005835,0.00010248,-0.00
 010080,0.00019845,0.00021492,0.00011177,0.00034149,0.00070075,0.000008
 26,0.00018505,0.00014558,0.00030891,-0.00002941,0.00006310,-0.00016679
 ,0.00016125,-0.00004805,-0.00005241,0.01202361,0.00051748,-0.04752815,
 -0.01186287,0.00278609,0.04806573,-0.00006556,0.00000432,0.00003233,0.
 00002238,-0.00000806,-0.00000426,-0.00000166,0.00000882,0.00000477,0.0
 0002055,-0.00000209,-0.00000162,-0.00000266,-0.00000338,0.00000037,0.0
 0003624,-0.00000132,-0.00000798,-0.00000864,0.00000783,0.00000589,0.00
 000468,-0.00000300,-0.00000295,0.00000490,0.00000038,-0.00000025,0.000
 00634,0.00000200,0.00000256,-0.00000710,-0.00000458,-0.00000394,0.0010
 4884,0.00070664,-0.00042368,-0.00079256,-0.00046998,-0.00020948,-0.000
 27537,0.00004855,0.00003039,0.00004235,0.00007282,0.00022126,0.0002471
 5,-0.00009017,-0.00007831,-0.00022955,0.00008617,-0.00006566,-0.001402
 36,-0.00122352,0.00033274,-0.00000521,-0.00005065,-0.00000508,0.000010
 38,-0.00000575,0.00000785,0.00005737,-0.00000295,0.00005071,0.00237769
 ,-0.00092561,-0.01301058,-0.00108588,-0.00193357,-0.00083201,0.0004691
 4,-0.00016672,-0.00020461,-0.00012043,-0.00009757,0.00022768,0.0007494
 1,-0.00033387,-0.00064941,0.00013350,0.00078937,0.00014025,-0.00004407
 ,-0.00003811,0.00017228,-0.00013517,0.00007984,-0.00011233,0.00024034,
 0.00015353,0.00017992,-0.06711460,0.00819353,0.07273461,-0.00757904,0.
 00280492,0.03094697,0.07123428,-0.00003498,-0.00000808,0.00003858,0.00
 001568,0.00000387,0.00000673,-0.00000087,0.00000047,0.00000068,0.00001
 023,-0.00000267,-0.00000180,-0.00000428,-0.00000176,0.00000036,0.00002
 371,-0.00000221,-0.00000593,-0.00000087,0.00000607,-0.00000170,0.00000
 404,-0.00000047,-0.00000181,0.00000123,0.00000046,-0.00000108,0.000003
 03,0.00000085,0.00000029,-0.00000392,-0.00000164,-0.00000418,0.0011646
 2,0.00054291,0.00060334,-0.00006058,-0.00011768,-0.00051329,-0.0002301
 8,0.00003874,0.00020670,0.00010380,0.00003414,0.00028661,0.00029360,-0
 .00002945,-0.00009843,-0.00029958,0.00017770,-0.00020161,-0.00102209,-
 0.00034203,0.00044045,-0.00001934,0.00000736,-0.00001541,0.00000003,-0
 .00003381,0.00000033,0.00008228,-0.00003420,0.00005917,0.00853647,-0.0
 0324125,-0.02530747,-0.00267367,-0.00480715,-0.00159656,-0.00009735,-0
 .00006368,0.00026368,-0.00015109,0.00017848,-0.00020572,0.00034688,0.0
 0000985,-0.00189326,0.00053058,0.00193524,-0.00113688,0.00007586,-0.00
 009753,0.00004070,-0.00011624,0.00028621,0.00024746,-0.00019027,-0.000
 40996,0.00062421,0.00750716,-0.04907673,-0.02499709,0.00051340,-0.0013
 2011,-0.00173973,-0.00598603,0.05299322,-0.00002234,-0.00002596,0.0000
 6062,-0.00000738,-0.00000717,-0.00001530,-0.00000107,0.00000352,0.0000
 0889,0.00000735,-0.00000167,0.00000057,-0.00000065,0.00000256,0.000000
 82,0.00001790,-0.00000106,-0.00000459,-0.00000635,0.00000741,0.0000027
 1,-0.00000067,-0.00000044,-0.00000135,0.00000284,0.00000150,-0.0000009
 4,0.00000427,0.00000183,0.00000106,-0.00000469,0.00000009,-0.00000255,
 0.00137724,-0.00010993,0.00013664,0.00064716,0.00073199,-0.00058391,-0
 .00046453,0.00029318,0.00022116,0.00003643,-0.00008973,0.00041514,0.00
 045692,-0.00001708,-0.00008073,-0.00054549,0.00004818,-0.00029364,0.00
 069812,0.00018814,0.00077465,-0.00003004,0.00004016,-0.00000607,-0.000
 01229,-0.00000854,0.00000009,0.00010768,0.00000404,0.00011008,0.003322
 41,-0.00027699,-0.01268876,-0.00201948,-0.00300282,0.00008855,0.000028
 89,0.00015213,0.00019394,0.00000799,0.00009048,0.00038733,0.00038704,-
 0.00032202,-0.00080995,0.00000662,0.00093427,0.00062918,-0.00011153,-0
 .00008050,-0.00004514,-0.00016636,0.00003150,0.00022346,0.00013681,-0.
 00047866,0.00051396,0.07069072,-0.02638880,-0.29332938,-0.00007509,0.0
 0031179,0.00008436,-0.07914633,0.03014236,0.31856575,-0.00006724,-0.00
 000950,-0.00000038,0.00002752,-0.00000324,-0.00000318,-0.00000390,0.00
 000901,0.00000122,0.00001957,-0.00000112,-0.00000029,-0.00000243,-0.00
 000688,-0.00000090,0.00002431,-0.00000077,-0.00000576,-0.00000595,0.00
 000312,0.00000799,0.00000427,-0.00000255,-0.00000267,0.00000411,0.0000
 0009,-0.00000014,0.00000524,0.00000209,0.00000214,-0.00000605,-0.00000
 360,-0.00000327,0.00114859,-0.00069255,0.00078516,0.00014705,0.0002421
 6,0.00019392,-0.00013112,0.00009508,-0.00004005,0.00000383,-0.00000553
 ,0.00003491,-0.00003766,0.00004090,-0.00000754,0.00015976,0.00017672,-
 0.00020876,0.00006708,-0.00009027,-0.00005397,-0.00000021,-0.00001004,
 -0.00000291,0.00001465,-0.00001104,0.00000489,0.00001944,-0.00003459,-
 0.00001145,0.00244933,-0.01133759,0.00731481,-0.00004849,0.00037836,0.
 00048343,-0.00004472,0.00011405,-0.00015929,0.00021514,0.00024720,0.00
 006091,-0.00009880,-0.00005272,0.00016444,-0.00093487,-0.00216954,-0.0
 0115053,0.00038416,-0.00029703,0.00000459,0.00079316,-0.00074328,0.000
 24686,-0.00012735,0.00013196,-0.00018720,-0.07218126,0.06709930,-0.042
 02863,-0.00815918,0.02568417,-0.01692938,0.00216429,-0.00832124,0.0046
 7790,0.07419773,-0.00001669,0.00002658,-0.00001104,0.00000803,0.000000
 22,0.00000106,0.00000081,0.00000712,0.00000096,0.00000852,-0.00000020,
 -0.00000166,-0.00000012,-0.00000130,0.00000102,0.00001338,-0.00000217,
 -0.00001196,-0.00000337,-0.00000083,0.00000733,0.00000182,-0.00000195,
 -0.00000035,0.00000189,-0.00000084,0.00000101,0.00000331,-0.00000036,0
 .00000217,-0.00000227,-0.00000349,0.00000244,0.00163496,0.00066014,0.0
 0008303,-0.00036992,0.00026226,0.00025378,0.00007357,-0.00011853,0.000
 08855,-0.00003042,-0.00002346,-0.00007683,-0.00011581,-0.00007782,-0.0
 0009457,-0.00034007,0.00020621,-0.00008799,0.00001947,-0.00000142,-0.0
 0010119,-0.00001305,-0.00000842,-0.00000024,-0.00002227,-0.00000699,0.
 00000492,-0.00001837,-0.00003458,-0.00004765,0.00808018,-0.02178798,0.
 01402244,0.00034642,0.00081637,0.00157150,-0.00005851,-0.00007704,-0.0
 0007122,0.00000906,0.00022270,-0.00100694,-0.00022006,0.00042173,-0.00
 009098,-0.00323760,-0.00402831,-0.00354306,0.00000476,0.00031462,-0.00
 013162,0.00050995,-0.00152411,0.00092358,-0.00005594,0.00023618,-0.000
 01247,0.06579754,-0.21933580,0.11031505,0.00003373,-0.00061785,-0.0001
 6467,-0.00161181,0.00337484,-0.00217378,-0.07043114,0.24110448,-0.0000
 1558,0.00000498,0.00000879,0.00001904,0.00000260,0.00001521,0.00000011
 ,-0.00000330,-0.00000269,0.00000634,-0.00000122,-0.00000100,-0.0000018
 8,-0.00000134,-0.00000071,0.00001062,-0.00000133,-0.00000251,-0.000000
 16,0.00000606,-0.00000630,0.00000403,0.00000057,-0.00000235,0.00000020
 ,-0.00000006,-0.00000072,0.00000110,0.00000027,-0.00000034,-0.00000205
 ,-0.00000192,-0.00000154,0.00037512,0.00003278,0.00055416,-0.00005088,
 -0.00001738,-0.00050316,0.00021653,-0.00008289,0.00019811,0.00006574,-
 0.00002660,-0.00013565,-0.00012217,0.00002117,0.00006345,0.00032000,0.
 00012286,0.00004624,-0.00007386,0.00009851,0.00013546,-0.00000295,0.00
 002208,-0.00001275,0.00000829,-0.00000046,0.00000605,-0.00002949,-0.00
 002012,-0.00003421,0.00442301,-0.01058988,0.00546326,0.00028775,-0.000
 62910,0.00134493,0.00010193,0.00003473,-0.00004113,-0.00022962,-0.0000
 1110,-0.00015462,0.00003865,0.00017962,0.00013370,-0.00080580,-0.00218
 821,-0.00073710,-0.00006645,-0.00000270,-0.00015585,0.00006914,-0.0005
 9423,0.00075911,-0.00012918,-0.00023805,0.00026292,-0.04170738,0.11152
 086,-0.11797790,0.00080883,-0.00274688,0.00046931,-0.01033210,0.024760
 29,-0.01455664,0.04681314,-0.11965060,0.12486647\\-0.00001684,0.000004
 19,0.00000893,0.00000710,-0.00000818,-0.00000958,-0.00000004,0.0000017
 6,0.00000139,0.00000361,0.00000055,-0.00000048,-0.00000058,-0.00000214
 ,-0.00000297,0.00000754,0.00000688,0.00000704,-0.00000229,0.00000616,0
 .00000209,-0.00000045,0.00000280,-0.00000066,-0.00000410,0.00000074,-0
 .00000001,-0.00000086,-0.00000180,0.00000008,-0.00000190,-0.00000487,-
 0.00000223,-0.00001492,0.00000248,-0.00004021,-0.00003019,0.00000413,0
 .00003376,0.00002251,0.00000091,0.00000724,0.00001684,-0.00000466,-0.0
 0004150,-0.00004691,0.00000333,0.00003505,0.00004954,-0.00000582,0.000
 01016,-0.00000024,-0.00000026,-0.00000603,-0.00000385,0.00000106,0.000
 00316,0.00000417,-0.00000168,-0.00000829,-0.00000615,-0.00000219,-0.00
 000025,0.00001559,-0.00000176,0.00000390,0.00000084,-0.00000156,-0.000
 01220,-0.00000262,-0.00000169,0.00000095,0.00000115,-0.00000212,-0.000
 00725,-0.00000058,-0.00000272,-0.00000669,-0.00000075,-0.00000288,0.00
 000575,-0.00000107,0.00000116,0.00000260,0.00000057,-0.00000480,0.0000
 0390,0.00000083,-0.00000556,0.00000599,0.00000054,0.00000459,0.0000038
 8,-0.00000088,-0.00000005,0.00000098,0.00000318,0.00000907,0.00000180,
 0.00000124,0.00000496,-0.00000033\\\@
 The archive entry for this job was punched.


 OF ALL THE WONDERS OF THE UNIVERSE, THE GREATEST IS MAN.

                                    -- ARISTOTLE
 Job cpu time:       1 days 17 hours 32 minutes 26.9 seconds.
 Elapsed time:       0 days  1 hours 19 minutes  0.4 seconds.
 File lengths (MBytes):  RWF=    875 Int=      0 D2E=      0 Chk=     30 Scr=      1
 Normal termination of Gaussian 16 at Wed Nov  1 02:24:40 2023.
