 Entering Gaussian System, Link 0=g16
 Input=ph_2phenanthryl_2_1_m062x.com
 Output=ph_2phenanthryl_2_1_m062x.log
 Initial command:
 /arc/software/Gaussian/g16.c01/l1.exe "/tmp/slurm/41167/Gau-50247.inp" -scrdir="/tmp/slurm/41167/"
 Entering Link 1 = /arc/software/Gaussian/g16.c01/l1.exe PID=     50264.
  
 Copyright (c) 1988-2019, Gaussian, Inc.  All Rights Reserved.
  
 This is part of the Gaussian(R) 16 program.  It is based on
 the Gaussian(R) 09 system (copyright 2009, Gaussian, Inc.),
 the Gaussian(R) 03 system (copyright 2003, Gaussian, Inc.),
 the Gaussian(R) 98 system (copyright 1998, Gaussian, Inc.),
 the Gaussian(R) 94 system (copyright 1995, Gaussian, Inc.),
 the Gaussian 92(TM) system (copyright 1992, Gaussian, Inc.),
 the Gaussian 90(TM) system (copyright 1990, Gaussian, Inc.),
 the Gaussian 88(TM) system (copyright 1988, Gaussian, Inc.),
 the Gaussian 86(TM) system (copyright 1986, Carnegie Mellon
 University), and the Gaussian 82(TM) system (copyright 1983,
 Carnegie Mellon University). Gaussian is a federally registered
 trademark of Gaussian, Inc.
  
 This software contains proprietary and confidential information,
 including trade secrets, belonging to Gaussian, Inc.
  
 This software is provided under written license and may be
 used, copied, transmitted, or stored only in accord with that
 written license.
  
 The following legend is applicable only to US Government
 contracts under FAR:
  
                    RESTRICTED RIGHTS LEGEND
  
 Use, reproduction and disclosure by the US Government is
 subject to restrictions as set forth in subparagraphs (a)
 and (c) of the Commercial Computer Software - Restricted
 Rights clause in FAR 52.227-19.
  
 Gaussian, Inc.
 340 Quinnipiac St., Bldg. 40, Wallingford CT 06492
  
  
 ---------------------------------------------------------------
 Warning -- This program may not be used in any manner that
 competes with the business of Gaussian, Inc. or will provide
 assistance to any competitor of Gaussian, Inc.  The licensee
 of this program is prohibited from giving any competitor of
 Gaussian, Inc. access to this program.  By using this program,
 the user acknowledges that Gaussian, Inc. is engaged in the
 business of creating and licensing software in the field of
 computational chemistry and represents and warrants to the
 licensee that it is not a competitor of Gaussian, Inc. and that
 it will not use this program in any manner prohibited above.
 ---------------------------------------------------------------
  

 Cite this work as:
 Gaussian 16, Revision C.01,
 M. J. Frisch, G. W. Trucks, H. B. Schlegel, G. E. Scuseria, 
 M. A. Robb, J. R. Cheeseman, G. Scalmani, V. Barone, 
 G. A. Petersson, H. Nakatsuji, X. Li, M. Caricato, A. V. Marenich, 
 J. Bloino, B. G. Janesko, R. Gomperts, B. Mennucci, H. P. Hratchian, 
 J. V. Ortiz, A. F. Izmaylov, J. L. Sonnenberg, D. Williams-Young, 
 F. Ding, F. Lipparini, F. Egidi, J. Goings, B. Peng, A. Petrone, 
 T. Henderson, D. Ranasinghe, V. G. Zakrzewski, J. Gao, N. Rega, 
 G. Zheng, W. Liang, M. Hada, M. Ehara, K. Toyota, R. Fukuda, 
 J. Hasegawa, M. Ishida, T. Nakajima, Y. Honda, O. Kitao, H. Nakai, 
 T. Vreven, K. Throssell, J. A. Montgomery, Jr., J. E. Peralta, 
 F. Ogliaro, M. J. Bearpark, J. J. Heyd, E. N. Brothers, K. N. Kudin, 
 V. N. Staroverov, T. A. Keith, R. Kobayashi, J. Normand, 
 K. Raghavachari, A. P. Rendell, J. C. Burant, S. S. Iyengar, 
 J. Tomasi, M. Cossi, J. M. Millam, M. Klene, C. Adamo, R. Cammi, 
 J. W. Ochterski, R. L. Martin, K. Morokuma, O. Farkas, 
 J. B. Foresman, and D. J. Fox, Gaussian, Inc., Wallingford CT, 2019.
 
 ******************************************
 Gaussian 16:  ES64L-G16RevC.01  3-Jul-2019
                 8-Nov-2023 
 ******************************************
 %nprocshared=32
 Will use up to   32 processors via shared memory.
 %mem=8000MB
 %chk=ph_2phenanthryl_2_1_m062x.chk
 -----------------------------------------
 # opt freq=noraman m062x def2tzvp pop=nbo
 -----------------------------------------
 1/18=20,19=15,26=3,38=1/1,3;
 2/9=110,12=2,17=6,18=5,40=1/2;
 3/5=44,7=101,11=2,25=1,30=1,71=1,74=-55/1,2,3;
 4//1;
 5/5=2,38=5/2;
 6/7=2,8=2,9=2,10=2,28=1,40=1/1,7;
 7//1,2,3,16;
 1/18=20,19=15,26=3/3(2);
 2/9=110/2;
 99//99;
 2/9=110/2;
 3/5=44,7=101,11=2,25=1,30=1,71=1,74=-55/1,2,3;
 4/5=5,16=3,69=1/1;
 5/5=2,38=5/2;
 7//1,2,3,16;
 1/18=20,19=15,26=3/3(-5);
 2/9=110/2;
 6/7=2,8=2,9=2,10=2,19=2,28=1,40=1/1,7;
 99/9=1/99;
 ------------
 Structure697
 ------------
 Symbolic Z-matrix:
 Charge =  0 Multiplicity = 1
 C                    -5.3972   -15.8536   14.067 
 C                    -5.4293   -15.978    12.6804 
 C                    -5.4939   -14.8348   11.8875 
 C                    -5.528    -13.5628   12.472 
 C                    -5.4955   -13.4561   13.8677 
 C                    -5.4297   -14.5964   14.6648 
 H                    -5.3466   -16.7395   14.6838 
 H                    -5.4068   -16.9558   12.2214 
 H                    -5.5284   -14.9373   10.8125 
 H                    -5.5106   -12.4827   14.3365 
 H                    -5.4016   -14.505    15.741 
 C                    -4.8124   -11.0632   9.7093 
 C                    -4.7635   -12.1977   10.515 
 C                    -5.5978   -12.3423   11.6225 
 C                    -6.5002   -11.3197   11.9197 
 H                    -4.0534   -12.9772   10.2794 
 H                    -7.161    -11.4198   12.7682 
 C                    -5.7254   -10.0031   9.9898 
 C                    -6.5822   -10.1501   11.1235 
 C                    -7.5026   -9.1285    11.4377 
 C                    -7.5867   -7.981     10.6617 
 C                    -6.7543   -7.8042    9.537 
 C                    -5.8106   -8.8217    9.1905 
 H                    -8.1496   -9.2446    12.2951 
 H                    -8.2983   -7.2101    10.9193 
 C                    -4.9868   -8.6023    8.0431 
 C                    -6.8445   -6.6297    8.7485 
 C                    -5.1021   -7.4361    7.2909 
 C                    -6.0229   -6.4577    7.6399 
 H                    -6.1003   -5.5582    7.046 
 H                    -4.1382   -11.0126   8.8716 
 H                    -4.2579   -9.3308    7.7317 
 H                    -7.5591   -5.8645    9.0149 
 H                    -4.4699   -7.2894    6.4269 
 

 GradGradGradGradGradGradGradGradGradGradGradGradGradGradGradGradGradGrad
 Berny optimization.
 Initialization pass.
                           ----------------------------
                           !    Initial Parameters    !
                           ! (Angstroms and Degrees)  !
 --------------------------                            --------------------------
 ! Name  Definition              Value          Derivative Info.                !
 --------------------------------------------------------------------------------
 ! R1    R(1,2)                  1.3925         estimate D2E/DX2                !
 ! R2    R(1,6)                  1.3925         estimate D2E/DX2                !
 ! R3    R(1,7)                  1.0807         estimate D2E/DX2                !
 ! R4    R(2,3)                  1.3928         estimate D2E/DX2                !
 ! R5    R(2,8)                  1.0804         estimate D2E/DX2                !
 ! R6    R(3,4)                  1.4003         estimate D2E/DX2                !
 ! R7    R(3,9)                  1.0804         estimate D2E/DX2                !
 ! R8    R(4,5)                  1.4001         estimate D2E/DX2                !
 ! R9    R(4,14)                 1.4887         estimate D2E/DX2                !
 ! R10   R(5,6)                  1.3928         estimate D2E/DX2                !
 ! R11   R(5,10)                 1.0805         estimate D2E/DX2                !
 ! R12   R(6,11)                 1.0804         estimate D2E/DX2                !
 ! R13   R(12,13)                1.3923         estimate D2E/DX2                !
 ! R14   R(12,18)                1.4269         estimate D2E/DX2                !
 ! R15   R(12,31)                1.0765         estimate D2E/DX2                !
 ! R16   R(13,14)                1.3941         estimate D2E/DX2                !
 ! R17   R(13,16)                1.0804         estimate D2E/DX2                !
 ! R18   R(14,15)                1.3958         estimate D2E/DX2                !
 ! R19   R(15,17)                1.0801         estimate D2E/DX2                !
 ! R20   R(15,19)                1.4173         estimate D2E/DX2                !
 ! R21   R(18,19)                1.4286         estimate D2E/DX2                !
 ! R22   R(18,23)                1.4289         estimate D2E/DX2                !
 ! R23   R(19,20)                1.4105         estimate D2E/DX2                !
 ! R24   R(20,21)                1.3878         estimate D2E/DX2                !
 ! R25   R(20,24)                1.0804         estimate D2E/DX2                !
 ! R26   R(21,22)                1.4104         estimate D2E/DX2                !
 ! R27   R(21,25)                1.0803         estimate D2E/DX2                !
 ! R28   R(22,23)                1.4304         estimate D2E/DX2                !
 ! R29   R(22,27)                1.4175         estimate D2E/DX2                !
 ! R30   R(23,26)                1.4294         estimate D2E/DX2                !
 ! R31   R(26,28)                1.3925         estimate D2E/DX2                !
 ! R32   R(26,32)                1.0766         estimate D2E/DX2                !
 ! R33   R(27,29)                1.3905         estimate D2E/DX2                !
 ! R34   R(27,33)                1.0803         estimate D2E/DX2                !
 ! R35   R(28,29)                1.3881         estimate D2E/DX2                !
 ! R36   R(28,34)                1.0806         estimate D2E/DX2                !
 ! R37   R(29,30)                1.0807         estimate D2E/DX2                !
 ! A1    A(2,1,6)              120.5038         estimate D2E/DX2                !
 ! A2    A(2,1,7)              119.7473         estimate D2E/DX2                !
 ! A3    A(6,1,7)              119.749          estimate D2E/DX2                !
 ! A4    A(1,2,3)              119.6445         estimate D2E/DX2                !
 ! A5    A(1,2,8)              120.225          estimate D2E/DX2                !
 ! A6    A(3,2,8)              120.1303         estimate D2E/DX2                !
 ! A7    A(2,3,4)              120.605          estimate D2E/DX2                !
 ! A8    A(2,3,9)              119.3441         estimate D2E/DX2                !
 ! A9    A(4,3,9)              120.0477         estimate D2E/DX2                !
 ! A10   A(3,4,5)              118.996          estimate D2E/DX2                !
 ! A11   A(3,4,14)             120.5105         estimate D2E/DX2                !
 ! A12   A(5,4,14)             120.4934         estimate D2E/DX2                !
 ! A13   A(4,5,6)              120.6089         estimate D2E/DX2                !
 ! A14   A(4,5,10)             120.054          estimate D2E/DX2                !
 ! A15   A(6,5,10)             119.3338         estimate D2E/DX2                !
 ! A16   A(1,6,5)              119.6417         estimate D2E/DX2                !
 ! A17   A(1,6,11)             120.2248         estimate D2E/DX2                !
 ! A18   A(5,6,11)             120.1332         estimate D2E/DX2                !
 ! A19   A(13,12,18)           120.9354         estimate D2E/DX2                !
 ! A20   A(13,12,31)           117.814          estimate D2E/DX2                !
 ! A21   A(18,12,31)           121.2505         estimate D2E/DX2                !
 ! A22   A(12,13,14)           121.5469         estimate D2E/DX2                !
 ! A23   A(12,13,16)           118.9963         estimate D2E/DX2                !
 ! A24   A(14,13,16)           119.4533         estimate D2E/DX2                !
 ! A25   A(4,14,13)            120.6843         estimate D2E/DX2                !
 ! A26   A(4,14,15)            120.6269         estimate D2E/DX2                !
 ! A27   A(13,14,15)           118.6888         estimate D2E/DX2                !
 ! A28   A(14,15,17)           119.6623         estimate D2E/DX2                !
 ! A29   A(14,15,19)           121.4918         estimate D2E/DX2                !
 ! A30   A(17,15,19)           118.8429         estimate D2E/DX2                !
 ! A31   A(12,18,19)           117.5996         estimate D2E/DX2                !
 ! A32   A(12,18,23)           122.8491         estimate D2E/DX2                !
 ! A33   A(19,18,23)           119.5513         estimate D2E/DX2                !
 ! A34   A(15,19,18)           119.7375         estimate D2E/DX2                !
 ! A35   A(15,19,20)           120.6856         estimate D2E/DX2                !
 ! A36   A(18,19,20)           119.5769         estimate D2E/DX2                !
 ! A37   A(19,20,21)           120.9209         estimate D2E/DX2                !
 ! A38   A(19,20,24)           119.3226         estimate D2E/DX2                !
 ! A39   A(21,20,24)           119.7565         estimate D2E/DX2                !
 ! A40   A(20,21,22)           120.9166         estimate D2E/DX2                !
 ! A41   A(20,21,25)           119.777          estimate D2E/DX2                !
 ! A42   A(22,21,25)           119.3063         estimate D2E/DX2                !
 ! A43   A(21,22,23)           119.5645         estimate D2E/DX2                !
 ! A44   A(21,22,27)           120.6576         estimate D2E/DX2                !
 ! A45   A(23,22,27)           119.778          estimate D2E/DX2                !
 ! A46   A(18,23,22)           119.4697         estimate D2E/DX2                !
 ! A47   A(18,23,26)           122.7882         estimate D2E/DX2                !
 ! A48   A(22,23,26)           117.742          estimate D2E/DX2                !
 ! A49   A(23,26,28)           120.9582         estimate D2E/DX2                !
 ! A50   A(23,26,32)           121.2328         estimate D2E/DX2                !
 ! A51   A(28,26,32)           117.809          estimate D2E/DX2                !
 ! A52   A(22,27,29)           120.555          estimate D2E/DX2                !
 ! A53   A(22,27,33)           119.4584         estimate D2E/DX2                !
 ! A54   A(29,27,33)           119.9867         estimate D2E/DX2                !
 ! A55   A(26,28,29)           120.6232         estimate D2E/DX2                !
 ! A56   A(26,28,34)           119.8116         estimate D2E/DX2                !
 ! A57   A(29,28,34)           119.5653         estimate D2E/DX2                !
 ! A58   A(27,29,28)           120.3437         estimate D2E/DX2                !
 ! A59   A(27,29,30)           119.9197         estimate D2E/DX2                !
 ! A60   A(28,29,30)           119.7366         estimate D2E/DX2                !
 ! D1    D(6,1,2,3)              0.0241         estimate D2E/DX2                !
 ! D2    D(6,1,2,8)           -179.82           estimate D2E/DX2                !
 ! D3    D(7,1,2,3)           -179.9709         estimate D2E/DX2                !
 ! D4    D(7,1,2,8)              0.185          estimate D2E/DX2                !
 ! D5    D(2,1,6,5)              0.0326         estimate D2E/DX2                !
 ! D6    D(2,1,6,11)          -179.8169         estimate D2E/DX2                !
 ! D7    D(7,1,6,5)           -179.9724         estimate D2E/DX2                !
 ! D8    D(7,1,6,11)             0.1781         estimate D2E/DX2                !
 ! D9    D(1,2,3,4)             -0.0564         estimate D2E/DX2                !
 ! D10   D(1,2,3,9)           -179.4017         estimate D2E/DX2                !
 ! D11   D(8,2,3,4)            179.7879         estimate D2E/DX2                !
 ! D12   D(8,2,3,9)              0.4425         estimate D2E/DX2                !
 ! D13   D(2,3,4,5)              0.0315         estimate D2E/DX2                !
 ! D14   D(2,3,4,14)          -179.9663         estimate D2E/DX2                !
 ! D15   D(9,3,4,5)            179.3723         estimate D2E/DX2                !
 ! D16   D(9,3,4,14)            -0.6256         estimate D2E/DX2                !
 ! D17   D(3,4,5,6)              0.0259         estimate D2E/DX2                !
 ! D18   D(3,4,5,10)           179.3617         estimate D2E/DX2                !
 ! D19   D(14,4,5,6)          -179.9763         estimate D2E/DX2                !
 ! D20   D(14,4,5,10)           -0.6405         estimate D2E/DX2                !
 ! D21   D(3,4,14,13)          -46.3906         estimate D2E/DX2                !
 ! D22   D(3,4,14,15)          133.6229         estimate D2E/DX2                !
 ! D23   D(5,4,14,13)          133.6116         estimate D2E/DX2                !
 ! D24   D(5,4,14,15)          -46.3749         estimate D2E/DX2                !
 ! D25   D(4,5,6,1)             -0.0578         estimate D2E/DX2                !
 ! D26   D(4,5,6,11)           179.7918         estimate D2E/DX2                !
 ! D27   D(10,5,6,1)          -179.3984         estimate D2E/DX2                !
 ! D28   D(10,5,6,11)            0.4513         estimate D2E/DX2                !
 ! D29   D(18,12,13,14)         -0.0932         estimate D2E/DX2                !
 ! D30   D(18,12,13,16)       -179.4105         estimate D2E/DX2                !
 ! D31   D(31,12,13,14)        179.7638         estimate D2E/DX2                !
 ! D32   D(31,12,13,16)          0.4465         estimate D2E/DX2                !
 ! D33   D(13,12,18,19)          0.0238         estimate D2E/DX2                !
 ! D34   D(13,12,18,23)       -179.9687         estimate D2E/DX2                !
 ! D35   D(31,12,18,19)       -179.8282         estimate D2E/DX2                !
 ! D36   D(31,12,18,23)          0.1792         estimate D2E/DX2                !
 ! D37   D(12,13,14,4)        -179.9154         estimate D2E/DX2                !
 ! D38   D(12,13,14,15)          0.0713         estimate D2E/DX2                !
 ! D39   D(16,13,14,4)          -0.6012         estimate D2E/DX2                !
 ! D40   D(16,13,14,15)        179.3856         estimate D2E/DX2                !
 ! D41   D(4,14,15,17)          -0.6345         estimate D2E/DX2                !
 ! D42   D(4,14,15,19)        -179.9947         estimate D2E/DX2                !
 ! D43   D(13,14,15,17)        179.3787         estimate D2E/DX2                !
 ! D44   D(13,14,15,19)          0.0185         estimate D2E/DX2                !
 ! D45   D(14,15,19,18)         -0.0858         estimate D2E/DX2                !
 ! D46   D(14,15,19,20)        179.8561         estimate D2E/DX2                !
 ! D47   D(17,15,19,18)       -179.4511         estimate D2E/DX2                !
 ! D48   D(17,15,19,20)          0.4908         estimate D2E/DX2                !
 ! D49   D(12,18,19,15)          0.0632         estimate D2E/DX2                !
 ! D50   D(12,18,19,20)       -179.8794         estimate D2E/DX2                !
 ! D51   D(23,18,19,15)       -179.944          estimate D2E/DX2                !
 ! D52   D(23,18,19,20)          0.1134         estimate D2E/DX2                !
 ! D53   D(12,18,23,22)        179.9177         estimate D2E/DX2                !
 ! D54   D(12,18,23,26)         -0.0671         estimate D2E/DX2                !
 ! D55   D(19,18,23,22)         -0.0747         estimate D2E/DX2                !
 ! D56   D(19,18,23,26)        179.9405         estimate D2E/DX2                !
 ! D57   D(15,19,20,21)        179.9774         estimate D2E/DX2                !
 ! D58   D(15,19,20,24)         -0.0333         estimate D2E/DX2                !
 ! D59   D(18,19,20,21)         -0.0806         estimate D2E/DX2                !
 ! D60   D(18,19,20,24)        179.9088         estimate D2E/DX2                !
 ! D61   D(19,20,21,22)          0.0077         estimate D2E/DX2                !
 ! D62   D(19,20,21,25)       -179.9923         estimate D2E/DX2                !
 ! D63   D(24,20,21,22)       -179.9817         estimate D2E/DX2                !
 ! D64   D(24,20,21,25)          0.0184         estimate D2E/DX2                !
 ! D65   D(20,21,22,23)          0.0315         estimate D2E/DX2                !
 ! D66   D(20,21,22,27)       -179.9767         estimate D2E/DX2                !
 ! D67   D(25,21,22,23)       -179.9685         estimate D2E/DX2                !
 ! D68   D(25,21,22,27)          0.0232         estimate D2E/DX2                !
 ! D69   D(21,22,23,18)          0.0027         estimate D2E/DX2                !
 ! D70   D(21,22,23,26)        179.9883         estimate D2E/DX2                !
 ! D71   D(27,22,23,18)       -179.9891         estimate D2E/DX2                !
 ! D72   D(27,22,23,26)         -0.0036         estimate D2E/DX2                !
 ! D73   D(21,22,27,29)       -179.9888         estimate D2E/DX2                !
 ! D74   D(21,22,27,33)          0.0079         estimate D2E/DX2                !
 ! D75   D(23,22,27,29)          0.0029         estimate D2E/DX2                !
 ! D76   D(23,22,27,33)        179.9996         estimate D2E/DX2                !
 ! D77   D(18,23,26,28)        179.9917         estimate D2E/DX2                !
 ! D78   D(18,23,26,32)         -0.0157         estimate D2E/DX2                !
 ! D79   D(22,23,26,28)          0.0067         estimate D2E/DX2                !
 ! D80   D(22,23,26,32)        179.9993         estimate D2E/DX2                !
 ! D81   D(23,26,28,29)         -0.0091         estimate D2E/DX2                !
 ! D82   D(23,26,28,34)        179.9997         estimate D2E/DX2                !
 ! D83   D(32,26,28,29)        179.998          estimate D2E/DX2                !
 ! D84   D(32,26,28,34)          0.0068         estimate D2E/DX2                !
 ! D85   D(22,27,29,28)         -0.0052         estimate D2E/DX2                !
 ! D86   D(22,27,29,30)       -179.9971         estimate D2E/DX2                !
 ! D87   D(33,27,29,28)        179.9981         estimate D2E/DX2                !
 ! D88   D(33,27,29,30)          0.0062         estimate D2E/DX2                !
 ! D89   D(26,28,29,27)          0.0083         estimate D2E/DX2                !
 ! D90   D(26,28,29,30)       -179.9998         estimate D2E/DX2                !
 ! D91   D(34,28,29,27)        179.9995         estimate D2E/DX2                !
 ! D92   D(34,28,29,30)         -0.0085         estimate D2E/DX2                !
 --------------------------------------------------------------------------------
 Trust Radius=3.00D-01 FncErr=1.00D-07 GrdErr=1.00D-06 EigMax=2.50D+02 EigMin=1.00D-04
 Number of steps in this run=    199 maximum allowed number of steps=    204.
 GradGradGradGradGradGradGradGradGradGradGradGradGradGradGradGradGradGrad

                          Input orientation:                          
 ---------------------------------------------------------------------
 Center     Atomic      Atomic             Coordinates (Angstroms)
 Number     Number       Type             X           Y           Z
 ---------------------------------------------------------------------
      1          6           0       -5.397200  -15.853600   14.067000
      2          6           0       -5.429300  -15.978000   12.680400
      3          6           0       -5.493900  -14.834800   11.887500
      4          6           0       -5.528000  -13.562800   12.472000
      5          6           0       -5.495500  -13.456100   13.867700
      6          6           0       -5.429700  -14.596400   14.664800
      7          1           0       -5.346600  -16.739500   14.683800
      8          1           0       -5.406800  -16.955800   12.221400
      9          1           0       -5.528400  -14.937300   10.812500
     10          1           0       -5.510600  -12.482700   14.336500
     11          1           0       -5.401600  -14.505000   15.741000
     12          6           0       -4.812400  -11.063200    9.709300
     13          6           0       -4.763500  -12.197700   10.515000
     14          6           0       -5.597800  -12.342300   11.622500
     15          6           0       -6.500200  -11.319700   11.919700
     16          1           0       -4.053400  -12.977200   10.279400
     17          1           0       -7.161000  -11.419800   12.768200
     18          6           0       -5.725400  -10.003100    9.989800
     19          6           0       -6.582200  -10.150100   11.123500
     20          6           0       -7.502600   -9.128500   11.437700
     21          6           0       -7.586700   -7.981000   10.661700
     22          6           0       -6.754300   -7.804200    9.537000
     23          6           0       -5.810600   -8.821700    9.190500
     24          1           0       -8.149600   -9.244600   12.295100
     25          1           0       -8.298300   -7.210100   10.919300
     26          6           0       -4.986800   -8.602300    8.043100
     27          6           0       -6.844500   -6.629700    8.748500
     28          6           0       -5.102100   -7.436100    7.290900
     29          6           0       -6.022900   -6.457700    7.639900
     30          1           0       -6.100300   -5.558200    7.046000
     31          1           0       -4.138200  -11.012600    8.871600
     32          1           0       -4.257900   -9.330800    7.731700
     33          1           0       -7.559100   -5.864500    9.014900
     34          1           0       -4.469900   -7.289400    6.426900
 ---------------------------------------------------------------------
                    Distance matrix (angstroms):
                    1          2          3          4          5
     1  C    0.000000
     2  C    1.392539   0.000000
     3  C    2.407805   1.392756   0.000000
     4  C    2.794441   2.426183   1.400281   0.000000
     5  C    2.407777   2.788197   2.412884   1.400150   0.000000
     6  C    1.392470   2.417987   2.788252   2.426183   1.392832
     7  H    1.080658   2.144839   3.386572   3.875098   3.386577
     8  H    2.149692   1.080407   2.148887   3.404400   3.868601
     9  H    3.383576   2.140544   1.080427   2.154806   3.395480
    10  H    3.383557   3.868643   3.395623   2.154827   1.080513
    11  H    2.149655   3.396729   3.868688   3.404420   2.149014
    12  C    6.502267   5.776094   4.408397   3.793757   4.846121
    13  C    5.136525   4.407144   3.061297   2.505555   3.655132
    14  C    4.283112   3.790232   2.508700   1.488671   2.508374
    15  C    5.136512   4.839964   3.656447   2.506333   3.060773
    16  H    4.942205   4.081997   2.848105   2.706449   3.896780
    17  H    4.945347   4.876852   3.900908   2.710511   2.851194
    18  C    7.138601   6.559454   5.196170   4.344162   5.197516
    19  C    6.526740   6.141460   4.869754   3.817894   4.431838
    20  C    7.521496   7.263506   6.066223   4.963047   5.353641
    21  C    8.852559   8.525347   7.270280   6.218675   6.680440
    22  C    9.335709   8.857065   7.519494   6.578716   7.230734
    23  C    8.567308   7.971036   6.597839   5.772879   6.591900
    24  H    7.375243   7.272356   6.202356   5.054793   5.220541
    25  H    9.645439   9.391949   8.181572   7.102270   7.453943
    26  C    9.435950   8.723606   7.340342   6.671927   7.598955
    27  C   10.745299  10.239792   8.888257   7.979066   8.638619
    28  C   10.810038  10.105336   8.719117   8.035026   8.924655
    29  C   11.400967  10.788657   9.407324   8.606774   9.383030
    30  H   12.481348  11.864609  10.481562   9.687240  10.453621
    31  H    7.211972   6.389765   5.053987   4.625791   5.724856
    32  H    9.164112   8.369413   7.006596   6.480233   7.496683
    33  H   11.400862  10.966076   9.642778   8.679904   9.243403
    34  H   11.514188  10.747952   9.370154   8.776010   9.718310
                    6          7          8          9         10
     6  C    0.000000
     7  H    2.144795   0.000000
     8  H    3.396689   2.472615   0.000000
     9  H    3.868613   4.274101   2.464575   0.000000
    10  H    2.140573   4.274092   4.949045   4.294642   0.000000
    11  H    1.080440   2.472587   4.288826   4.949048   2.464589
    12  C    6.117315   7.566466   6.433249   4.091254   4.890137
    13  C    4.839259   6.192483   5.095601   2.859893   3.904260
    14  C    3.790094   5.363770   4.656130   2.719364   2.719028
    15  C    4.406621   6.192356   5.749102   3.906062   2.858811
    16  H    4.873166   5.935150   4.629505   2.510341   4.339127
    17  H    4.084762   5.938079   5.832967   4.343150   2.512597
    18  C    6.560600   8.219259   7.309007   5.006194   5.008828
    19  C    5.799883   7.590958   6.993175   4.911670   4.112508
    20  C    6.678998   8.550604   8.140835   6.166887   4.860223
    21  C    8.027514   9.894779   9.366518   7.255994   6.170871
    22  C    8.612948  10.407245   9.631902   7.349207   6.816917
    23  C    7.966191   9.647963   8.689821   6.333331   6.322518
    24  H    6.454076   8.350822   8.184802   6.440157   4.649401
    25  H    8.764420  10.662713  10.248654   8.209347   6.873779
    26  C    8.942724  10.509157   9.349629   6.935065   7.412068
    27  C   10.023601  11.818610  10.988920   8.660741   8.201381
    28  C   10.283561  11.885622  10.725081   8.297674   8.676147
    29  C   10.767523  12.481559  11.470825   9.067168   9.022612
    30  H   11.839969  13.561914  12.536786  10.123295  10.072132
    31  H    6.933452   8.248593   6.939174   4.593802   5.823213
    32  H    8.784505  10.217916   8.922892   6.522142   7.424764
    33  H   10.616110  12.461830  11.744402   9.469467   8.735923
    34  H   11.053346  12.579721  11.308992   8.879430   9.519201
                   11         12         13         14         15
    11  H    0.000000
    12  C    6.969544   0.000000
    13  C    5.748207   1.392348   0.000000
    14  C    4.655943   2.431725   1.394103   0.000000
    15  C    5.094643   2.792907   2.400040   1.395838   0.000000
    16  H    5.829313   2.136467   1.080449   2.142939   3.380047
    17  H    4.631575   3.872978   3.380835   2.146446   1.080106
    18  C    7.310831   1.426906   2.453030   2.855494   2.461354
    19  C    6.456026   2.442520   2.805460   2.454340   1.417259
    20  C    7.199954   3.737326   4.215926   3.740444   2.457333
    21  C    8.551990   4.254852   5.076666   4.888742   3.729606
    22  C    9.231475   3.797597   4.921647   5.126515   4.254476
    23  C    8.681949   2.507963   3.774665   4.284219   3.763520
    24  H    6.862765   4.596800   4.832725   4.069376   2.677216
    25  H    9.211690   5.334977   6.126534   5.841803   4.595952
    26  C    9.709356   2.977023   4.368873   5.212775   4.970178
    27  C   10.630022   4.970763   6.201105   6.515208   5.671962
    28  C   11.021036   4.369032   5.760408   6.563480   6.201840
    29  C   11.435597   5.192144   6.542162   7.118309   6.494886
    30  H   12.495457   6.249550   7.609465   8.198834   7.556967
    31  H    7.809078   1.076498   2.120431   3.386146   3.868368
    32  H    9.603608   2.686928   4.027593   5.099293   5.150046
    33  H   11.160352   5.920560   7.083439   7.253149   6.270434
    34  H   11.818858   5.013285   6.394542   7.334727   7.108888
                   16         17         18         19         20
    16  H    0.000000
    17  H    4.275137   0.000000
    18  C    3.424138   3.433292   0.000000
    19  C    3.885850   2.156893   1.428633   0.000000
    20  C    5.296332   2.671512   2.453524   1.410505   0.000000
    21  C    6.131262   4.055109   2.829271   2.434599   1.387806
    22  C    5.882682   4.866068   2.469580   2.837225   2.434417
    23  C    4.641297   4.623164   1.428932   2.469110   2.829646
    24  H    5.896966   2.435703   3.430230   2.156228   1.080381
    25  H    7.189443   4.736397   3.909557   3.410322   2.140592
    26  C    5.001202   5.915405   2.509464   3.798664   4.257869
    27  C    7.101032   6.261247   3.764710   4.254720   3.729463
    28  C    6.382374   7.078824   3.776513   4.923953   5.081591
    29  C    7.304093   7.226145   4.263848   5.107064   4.872984
    30  H    8.347828   8.259964   5.344497   6.159852   5.830996
    31  H    2.418418   4.948396   2.188302   3.433380   4.631834
    32  H    4.452957   6.177236   2.775709   4.192604   4.929852
    33  H    8.029906   6.716182   4.630431   4.875130   4.065323
    34  H    6.882318   8.032080   4.651312   5.890965   6.139029
                   21         22         23         24         25
    21  C    0.000000
    22  C    1.410354   0.000000
    23  C    2.454738   1.430363   0.000000
    24  H    2.140453   3.410092   3.910026   0.000000
    25  H    1.080287   2.155840   3.431422   2.460514   0.000000
    26  C    3.741999   2.448011   1.429444   5.338104   4.601824
    27  C    2.457073   1.417504   2.463570   4.595580   2.676335
    28  C    4.222848   2.812513   2.455675   6.131879   4.840667
    29  C    3.727893   2.438646   2.835124   5.827568   4.061775
    30  H    4.599199   3.417208   3.915768   6.733664   4.749993
    31  H    4.928205   4.192919   2.774646   5.562149   5.996542
    32  H    4.635490   3.438260   2.190470   5.998115   5.566237
    33  H    2.681843   2.163961   3.439930   4.746944   2.446180
    34  H    5.303422   3.893100   3.432624   7.197136   5.902931
                   26         27         28         29         30
    26  C    0.000000
    27  C    2.799962   0.000000
    28  C    1.392523   2.410568   0.000000
    29  C    2.415654   1.390541   1.388143   0.000000
    30  H    3.391259   2.144866   2.140768   1.080652   0.000000
    31  H    2.686276   5.152575   4.027290   5.080974   6.077263
    32  H    1.076558   3.875606   2.120582   3.373182   4.254073
    33  H    3.880293   1.080349   3.388060   2.145326   2.469511
    34  H    2.145459   3.385817   1.080599   2.138902   2.457345
                   31         32         33         34
    31  H    0.000000
    32  H    2.035228   0.000000
    33  H    6.182720   4.955780   0.000000
    34  H    4.466408   2.432028   4.274487   0.000000
 Stoichiometry    C20H14
 Framework group  C1[X(C20H14)]
 Deg. of freedom    96
 Full point group                 C1      NOp   1
 Largest Abelian subgroup         C1      NOp   1
 Largest concise Abelian subgroup C1      NOp   1
                         Standard orientation:                         
 ---------------------------------------------------------------------
 Center     Atomic      Atomic             Coordinates (Angstroms)
 Number     Number       Type             X           Y           Z
 ---------------------------------------------------------------------
      1          6           0       -5.891615    0.022487    0.002231
      2          6           0       -5.242826   -0.959884   -0.741532
      3          6           0       -3.851642   -1.025263   -0.731426
      4          6           0       -3.100456   -0.111921    0.018450
      5          6           0       -3.769018    0.869646    0.760051
      6          6           0       -5.160144    0.938295    0.754042
      7          1           0       -6.971005    0.074442   -0.004038
      8          1           0       -5.814727   -1.666364   -1.325566
      9          1           0       -3.352939   -1.783296   -1.317943
     10          1           0       -3.206702    1.576625    1.352918
     11          1           0       -5.668268    1.696811    1.331807
     12          6           0        0.428760   -1.489770    0.215339
     13          6           0       -0.960797   -1.402578    0.202483
     14          6           0       -1.613520   -0.183263    0.027144
     15          6           0       -0.845272    0.970100   -0.139924
     16          1           0       -1.543314   -2.301649    0.342894
     17          1           0       -1.334656    1.921669   -0.287061
     18          6           0        1.238292   -0.326931    0.046450
     19          6           0        0.571205    0.923322   -0.134808
     20          6           0        1.330876    2.099065   -0.308168
     21          6           0        2.718094    2.058962   -0.303520
     22          6           0        3.407232    0.841387   -0.125478
     23          6           0        2.666583   -0.369328    0.052140
     24          1           0        0.822165    3.042108   -0.446392
     25          1           0        3.281630    2.970780   -0.437814
     26          6           0        3.404359   -1.580820    0.229010
     27          6           0        4.824308    0.806837   -0.121170
     28          6           0        4.796879   -1.578158    0.227949
     29          6           0        5.501591   -0.394869    0.054317
     30          1           0        6.582145   -0.409348    0.055913
     31          1           0        0.869781   -2.461219    0.358982
     32          1           0        2.904024   -2.523957    0.367339
     33          1           0        5.378554    1.724358   -0.255778
     34          1           0        5.335974   -2.504852    0.363258
 ---------------------------------------------------------------------
 Rotational constants (GHZ):           1.2586621           0.1530773           0.1395273
 Standard basis: def2TZVP (5D, 7F)
 There are   804 symmetry adapted cartesian basis functions of A   symmetry.
 There are   704 symmetry adapted basis functions of A   symmetry.
   704 basis functions,  1132 primitive gaussians,   804 cartesian basis functions
    67 alpha electrons       67 beta electrons
       nuclear repulsion energy      1305.1421097999 Hartrees.
 NAtoms=   34 NActive=   34 NUniq=   34 SFac= 1.00D+00 NAtFMM=   60 NAOKFM=F Big=F
 Integral buffers will be    131072 words long.
 Raffenetti 2 integral format.
 Two-electron integral symmetry is turned on.
 One-electron integrals computed using PRISM.
   1 Symmetry operations used in ECPInt.
 ECPInt:  NShTT=   38226 NPrTT=  117852 LenC2=   32311 LenP2D=   71562.
 LDataN:  DoStor=T MaxTD1= 6 Len=  172
 NBasis=   704 RedAO= T EigKep=  4.17D-06  NBF=   704
 NBsUse=   704 1.00D-06 EigRej= -1.00D+00 NBFU=   704
 ExpMin= 9.52D-02 ExpMax= 1.36D+04 ExpMxC= 4.63D+02 IAcc=3 IRadAn=         5 AccDes= 0.00D+00
 Harris functional with IExCor= 1009 and IRadAn=       5 diagonalized for initial guess.
 HarFok:  IExCor= 1009 AccDes= 0.00D+00 IRadAn=         5 IDoV= 1 UseB2=F ITyADJ=14
 ICtDFT=  3500011 ScaDFX=  1.000000  1.000000  1.000000  1.000000
 FoFCou: FMM=F IPFlag=           0 FMFlag=      100000 FMFlg1=           0
         NFxFlg=           0 DoJE=T BraDBF=F KetDBF=T FulRan=T
         wScrn=  0.000000 ICntrl=       500 IOpCl=  0 I1Cent=   200000004 NGrid=           0
         NMat0=    1 NMatS0=      1 NMatT0=    0 NMatD0=    1 NMtDS0=    0 NMtDT0=    0
 Petite list used in FoFCou.
 Requested convergence on RMS density matrix=1.00D-08 within 128 cycles.
 Requested convergence on MAX density matrix=1.00D-06.
 Requested convergence on             energy=1.00D-06.
 No special actions if energy rises.
 Integral accuracy reduced to 1.0D-05 until final iterations.
 Problem detected with inexpensive integrals.
 Switching to full accuracy and repeating last cycle.
 SCF Done:  E(RM062X) =  -770.536334499     A.U. after   14 cycles
            NFock= 14  Conv=0.56D-08     -V/T= 2.0054

 **********************************************************************

            Population analysis using the SCF Density.

 **********************************************************************

 Orbital symmetries:
       Occupied  (A) (A) (A) (A) (A) (A) (A) (A) (A) (A) (A) (A)
                 (A) (A) (A) (A) (A) (A) (A) (A) (A) (A) (A) (A)
                 (A) (A) (A) (A) (A) (A) (A) (A) (A) (A) (A) (A)
                 (A) (A) (A) (A) (A) (A) (A) (A) (A) (A) (A) (A)
                 (A) (A) (A) (A) (A) (A) (A) (A) (A) (A) (A) (A)
                 (A) (A) (A) (A) (A) (A) (A)
       Virtual   (A) (A) (A) (A) (A) (A) (A) (A) (A) (A) (A) (A)
                 (A) (A) (A) (A) (A) (A) (A) (A) (A) (A) (A) (A)
                 (A) (A) (A) (A) (A) (A) (A) (A) (A) (A) (A) (A)
                 (A) (A) (A) (A) (A) (A) (A) (A) (A) (A) (A) (A)
                 (A) (A) (A) (A) (A) (A) (A) (A) (A) (A) (A) (A)
                 (A) (A) (A) (A) (A) (A) (A) (A) (A) (A) (A) (A)
                 (A) (A) (A) (A) (A) (A) (A) (A) (A) (A) (A) (A)
                 (A) (A) (A) (A) (A) (A) (A) (A) (A) (A) (A) (A)
                 (A) (A) (A) (A) (A) (A) (A) (A) (A) (A) (A) (A)
                 (A) (A) (A) (A) (A) (A) (A) (A) (A) (A) (A) (A)
                 (A) (A) (A) (A) (A) (A) (A) (A) (A) (A) (A) (A)
                 (A) (A) (A) (A) (A) (A) (A) (A) (A) (A) (A) (A)
                 (A) (A) (A) (A) (A) (A) (A) (A) (A) (A) (A) (A)
                 (A) (A) (A) (A) (A) (A) (A) (A) (A) (A) (A) (A)
                 (A) (A) (A) (A) (A) (A) (A) (A) (A) (A) (A) (A)
                 (A) (A) (A) (A) (A) (A) (A) (A) (A) (A) (A) (A)
                 (A) (A) (A) (A) (A) (A) (A) (A) (A) (A) (A) (A)
                 (A) (A) (A) (A) (A) (A) (A) (A) (A) (A) (A) (A)
                 (A) (A) (A) (A) (A) (A) (A) (A) (A) (A) (A) (A)
                 (A) (A) (A) (A) (A) (A) (A) (A) (A) (A) (A) (A)
                 (A) (A) (A) (A) (A) (A) (A) (A) (A) (A) (A) (A)
                 (A) (A) (A) (A) (A) (A) (A) (A) (A) (A) (A) (A)
                 (A) (A) (A) (A) (A) (A) (A) (A) (A) (A) (A) (A)
                 (A) (A) (A) (A) (A) (A) (A) (A) (A) (A) (A) (A)
                 (A) (A) (A) (A) (A) (A) (A) (A) (A) (A) (A) (A)
                 (A) (A) (A) (A) (A) (A) (A) (A) (A) (A) (A) (A)
                 (A) (A) (A) (A) (A) (A) (A) (A) (A) (A) (A) (A)
                 (A) (A) (A) (A) (A) (A) (A) (A) (A) (A) (A) (A)
                 (A) (A) (A) (A) (A) (A) (A) (A) (A) (A) (A) (A)
                 (A) (A) (A) (A) (A) (A) (A) (A) (A) (A) (A) (A)
                 (A) (A) (A) (A) (A) (A) (A) (A) (A) (A) (A) (A)
                 (A) (A) (A) (A) (A) (A) (A) (A) (A) (A) (A) (A)
                 (A) (A) (A) (A) (A) (A) (A) (A) (A) (A) (A) (A)
                 (A) (A) (A) (A) (A) (A) (A) (A) (A) (A) (A) (A)
                 (A) (A) (A) (A) (A) (A) (A) (A) (A) (A) (A) (A)
                 (A) (A) (A) (A) (A) (A) (A) (A) (A) (A) (A) (A)
                 (A) (A) (A) (A) (A) (A) (A) (A) (A) (A) (A) (A)
                 (A) (A) (A) (A) (A) (A) (A) (A) (A) (A) (A) (A)
                 (A) (A) (A) (A) (A) (A) (A) (A) (A) (A) (A) (A)
                 (A) (A) (A) (A) (A) (A) (A) (A) (A) (A) (A) (A)
                 (A) (A) (A) (A) (A) (A) (A) (A) (A) (A) (A) (A)
                 (A) (A) (A) (A) (A) (A) (A) (A) (A) (A) (A) (A)
                 (A) (A) (A) (A) (A) (A) (A) (A) (A) (A) (A) (A)
                 (A) (A) (A) (A) (A) (A) (A) (A) (A) (A) (A) (A)
                 (A) (A) (A) (A) (A) (A) (A) (A) (A) (A) (A) (A)
                 (A) (A) (A) (A) (A) (A) (A) (A) (A) (A) (A) (A)
                 (A) (A) (A) (A) (A) (A) (A) (A) (A) (A) (A) (A)
                 (A) (A) (A) (A) (A) (A) (A) (A) (A) (A) (A) (A)
                 (A) (A) (A) (A) (A) (A) (A) (A) (A) (A) (A) (A)
                 (A) (A) (A) (A) (A) (A) (A) (A) (A) (A) (A) (A)
                 (A) (A) (A) (A) (A) (A) (A) (A) (A) (A) (A) (A)
                 (A) (A) (A) (A) (A) (A) (A) (A) (A) (A) (A) (A)
                 (A) (A) (A) (A) (A) (A) (A) (A) (A) (A) (A) (A)
                 (A)
 The electronic state is 1-A.
 Alpha  occ. eigenvalues --  -10.55917 -10.55824 -10.55595 -10.55534 -10.55526
 Alpha  occ. eigenvalues --  -10.55464 -10.54948 -10.54862 -10.54764 -10.54738
 Alpha  occ. eigenvalues --  -10.54727 -10.54681 -10.54522 -10.54514 -10.54496
 Alpha  occ. eigenvalues --  -10.54462 -10.54438 -10.54418 -10.54357 -10.54287
 Alpha  occ. eigenvalues --   -0.99366  -0.97174  -0.95063  -0.91492  -0.88591
 Alpha  occ. eigenvalues --   -0.86064  -0.84908  -0.84576  -0.81159  -0.80724
 Alpha  occ. eigenvalues --   -0.72883  -0.71801  -0.70287  -0.68913  -0.67687
 Alpha  occ. eigenvalues --   -0.66272  -0.61470  -0.60870  -0.58446  -0.57529
 Alpha  occ. eigenvalues --   -0.55477  -0.54759  -0.52433  -0.52055  -0.50744
 Alpha  occ. eigenvalues --   -0.50142  -0.49326  -0.49113  -0.48899  -0.47884
 Alpha  occ. eigenvalues --   -0.47343  -0.45998  -0.44545  -0.44090  -0.42963
 Alpha  occ. eigenvalues --   -0.42596  -0.40742  -0.40567  -0.38819  -0.38509
 Alpha  occ. eigenvalues --   -0.38244  -0.35202  -0.32422  -0.31158  -0.30932
 Alpha  occ. eigenvalues --   -0.26708  -0.26240
 Alpha virt. eigenvalues --   -0.02488  -0.02366   0.01668   0.01767   0.02953
 Alpha virt. eigenvalues --    0.06068   0.08262   0.08303   0.08589   0.09402
 Alpha virt. eigenvalues --    0.10211   0.10908   0.11455   0.11707   0.12739
 Alpha virt. eigenvalues --    0.13137   0.13949   0.13969   0.14693   0.15328
 Alpha virt. eigenvalues --    0.16002   0.16660   0.16828   0.17400   0.19315
 Alpha virt. eigenvalues --    0.19627   0.20256   0.21294   0.21725   0.22202
 Alpha virt. eigenvalues --    0.22522   0.23224   0.23471   0.24063   0.24519
 Alpha virt. eigenvalues --    0.25067   0.25769   0.26136   0.26315   0.26564
 Alpha virt. eigenvalues --    0.26873   0.26937   0.27486   0.28312   0.28836
 Alpha virt. eigenvalues --    0.29392   0.30146   0.30596   0.30827   0.31599
 Alpha virt. eigenvalues --    0.31770   0.31922   0.32238   0.32745   0.33281
 Alpha virt. eigenvalues --    0.34142   0.34861   0.34983   0.35947   0.36630
 Alpha virt. eigenvalues --    0.36755   0.36924   0.37325   0.37623   0.38066
 Alpha virt. eigenvalues --    0.38546   0.39287   0.39440   0.39933   0.40782
 Alpha virt. eigenvalues --    0.41149   0.41318   0.41774   0.42462   0.42768
 Alpha virt. eigenvalues --    0.43302   0.43518   0.43992   0.44319   0.44468
 Alpha virt. eigenvalues --    0.44830   0.45335   0.45572   0.46224   0.46283
 Alpha virt. eigenvalues --    0.47401   0.47724   0.48287   0.48646   0.49048
 Alpha virt. eigenvalues --    0.49953   0.51082   0.51304   0.51916   0.52474
 Alpha virt. eigenvalues --    0.52782   0.53045   0.53698   0.53881   0.54435
 Alpha virt. eigenvalues --    0.55117   0.56395   0.56759   0.57016   0.58333
 Alpha virt. eigenvalues --    0.58944   0.59201   0.60327   0.60582   0.62609
 Alpha virt. eigenvalues --    0.63495   0.64157   0.64716   0.65687   0.66977
 Alpha virt. eigenvalues --    0.67275   0.67747   0.68773   0.68988   0.70342
 Alpha virt. eigenvalues --    0.70720   0.71000   0.72025   0.72577   0.72768
 Alpha virt. eigenvalues --    0.73110   0.74138   0.74362   0.74402   0.75147
 Alpha virt. eigenvalues --    0.75546   0.75909   0.76159   0.76769   0.76888
 Alpha virt. eigenvalues --    0.78348   0.78848   0.78971   0.79213   0.80499
 Alpha virt. eigenvalues --    0.80852   0.81513   0.82274   0.82703   0.83321
 Alpha virt. eigenvalues --    0.83942   0.84708   0.85031   0.85507   0.86616
 Alpha virt. eigenvalues --    0.87260   0.88170   0.89066   0.89360   0.89901
 Alpha virt. eigenvalues --    0.90677   0.91203   0.91939   0.92760   0.93145
 Alpha virt. eigenvalues --    0.93858   0.94323   0.95973   0.96554   0.96748
 Alpha virt. eigenvalues --    0.97705   0.98685   0.99956   1.00453   1.00978
 Alpha virt. eigenvalues --    1.02069   1.04137   1.04416   1.05168   1.06134
 Alpha virt. eigenvalues --    1.07333   1.08262   1.09581   1.09772   1.11330
 Alpha virt. eigenvalues --    1.11917   1.13897   1.14772   1.15461   1.15921
 Alpha virt. eigenvalues --    1.16547   1.18534   1.18888   1.19522   1.20781
 Alpha virt. eigenvalues --    1.22660   1.22700   1.23291   1.23782   1.24156
 Alpha virt. eigenvalues --    1.24709   1.24842   1.25284   1.25991   1.27879
 Alpha virt. eigenvalues --    1.29020   1.29379   1.29604   1.30578   1.30919
 Alpha virt. eigenvalues --    1.31944   1.32509   1.33040   1.33634   1.35597
 Alpha virt. eigenvalues --    1.35848   1.36449   1.37681   1.37832   1.39165
 Alpha virt. eigenvalues --    1.40353   1.40697   1.41800   1.43363   1.43846
 Alpha virt. eigenvalues --    1.45463   1.45946   1.46253   1.47533   1.48326
 Alpha virt. eigenvalues --    1.48937   1.49173   1.49605   1.50230   1.51635
 Alpha virt. eigenvalues --    1.52538   1.53447   1.53710   1.54993   1.55483
 Alpha virt. eigenvalues --    1.56814   1.57758   1.58410   1.58790   1.59202
 Alpha virt. eigenvalues --    1.59462   1.60082   1.60903   1.61270   1.62164
 Alpha virt. eigenvalues --    1.63968   1.64292   1.65499   1.65979   1.67104
 Alpha virt. eigenvalues --    1.68142   1.68967   1.70345   1.70588   1.70896
 Alpha virt. eigenvalues --    1.71084   1.72071   1.72641   1.73688   1.73851
 Alpha virt. eigenvalues --    1.74190   1.75463   1.75949   1.76503   1.76861
 Alpha virt. eigenvalues --    1.77350   1.78548   1.79332   1.80643   1.81553
 Alpha virt. eigenvalues --    1.81854   1.83840   1.85035   1.88027   1.89594
 Alpha virt. eigenvalues --    1.89822   1.90381   1.91266   1.92320   1.93804
 Alpha virt. eigenvalues --    1.94659   1.95498   1.97357   1.97555   1.99211
 Alpha virt. eigenvalues --    2.00180   2.01632   2.02319   2.04095   2.04702
 Alpha virt. eigenvalues --    2.06534   2.06977   2.07673   2.08694   2.09888
 Alpha virt. eigenvalues --    2.10951   2.12688   2.13541   2.15357   2.15780
 Alpha virt. eigenvalues --    2.17400   2.18513   2.18952   2.20022   2.20784
 Alpha virt. eigenvalues --    2.21624   2.22089   2.22782   2.23679   2.24371
 Alpha virt. eigenvalues --    2.25365   2.25851   2.26981   2.27491   2.27959
 Alpha virt. eigenvalues --    2.29325   2.30326   2.31685   2.34095   2.35204
 Alpha virt. eigenvalues --    2.36148   2.36731   2.37581   2.39277   2.43299
 Alpha virt. eigenvalues --    2.44588   2.45202   2.46032   2.47212   2.48597
 Alpha virt. eigenvalues --    2.48743   2.49746   2.50252   2.51234   2.53478
 Alpha virt. eigenvalues --    2.54411   2.55083   2.56560   2.57642   2.58918
 Alpha virt. eigenvalues --    2.59097   2.59635   2.60484   2.60973   2.61479
 Alpha virt. eigenvalues --    2.63434   2.64128   2.64444   2.65204   2.66130
 Alpha virt. eigenvalues --    2.66761   2.67153   2.67927   2.68427   2.68843
 Alpha virt. eigenvalues --    2.69477   2.69900   2.70702   2.71494   2.72360
 Alpha virt. eigenvalues --    2.73352   2.73568   2.74104   2.74595   2.74958
 Alpha virt. eigenvalues --    2.75566   2.76553   2.77179   2.77355   2.78400
 Alpha virt. eigenvalues --    2.79155   2.80186   2.80260   2.80980   2.81668
 Alpha virt. eigenvalues --    2.82520   2.82932   2.83826   2.83911   2.84472
 Alpha virt. eigenvalues --    2.85189   2.85941   2.86451   2.86725   2.87072
 Alpha virt. eigenvalues --    2.87797   2.88415   2.89203   2.89820   2.90422
 Alpha virt. eigenvalues --    2.91120   2.91541   2.92330   2.93178   2.93556
 Alpha virt. eigenvalues --    2.95257   2.95600   2.96826   2.97278   2.98512
 Alpha virt. eigenvalues --    2.98945   2.99646   3.00720   3.02017   3.02705
 Alpha virt. eigenvalues --    3.03437   3.03883   3.04526   3.05137   3.05312
 Alpha virt. eigenvalues --    3.06154   3.06699   3.07241   3.07863   3.08525
 Alpha virt. eigenvalues --    3.09373   3.09628   3.10277   3.11916   3.12396
 Alpha virt. eigenvalues --    3.13809   3.14562   3.15208   3.15469   3.16200
 Alpha virt. eigenvalues --    3.17004   3.17573   3.18091   3.18419   3.18841
 Alpha virt. eigenvalues --    3.19459   3.19712   3.20591   3.21721   3.22035
 Alpha virt. eigenvalues --    3.22650   3.22789   3.23447   3.24211   3.24976
 Alpha virt. eigenvalues --    3.26446   3.26737   3.28027   3.28899   3.29975
 Alpha virt. eigenvalues --    3.30767   3.31563   3.31949   3.32015   3.32528
 Alpha virt. eigenvalues --    3.32784   3.33056   3.33593   3.33966   3.35553
 Alpha virt. eigenvalues --    3.35779   3.36722   3.37289   3.38024   3.38678
 Alpha virt. eigenvalues --    3.39554   3.40684   3.41241   3.41505   3.42153
 Alpha virt. eigenvalues --    3.43517   3.44007   3.44820   3.45180   3.45865
 Alpha virt. eigenvalues --    3.46278   3.47076   3.47257   3.47646   3.49093
 Alpha virt. eigenvalues --    3.50223   3.51282   3.51344   3.51849   3.52620
 Alpha virt. eigenvalues --    3.53054   3.53870   3.54440   3.55058   3.55953
 Alpha virt. eigenvalues --    3.56987   3.57715   3.58144   3.58482   3.59615
 Alpha virt. eigenvalues --    3.60110   3.61314   3.62017   3.62921   3.64742
 Alpha virt. eigenvalues --    3.65051   3.66823   3.68019   3.68785   3.69869
 Alpha virt. eigenvalues --    3.71535   3.74732   3.75531   3.76891   3.77933
 Alpha virt. eigenvalues --    3.78152   3.79148   3.82462   3.83364   3.84072
 Alpha virt. eigenvalues --    3.85120   3.87841   3.88782   3.89113   3.90969
 Alpha virt. eigenvalues --    3.94026   3.94739   3.95353   3.96120   3.97475
 Alpha virt. eigenvalues --    3.99470   3.99792   4.01236   4.02002   4.02561
 Alpha virt. eigenvalues --    4.04040   4.05061   4.06057   4.08069   4.08807
 Alpha virt. eigenvalues --    4.09089   4.09736   4.11323   4.12003   4.13041
 Alpha virt. eigenvalues --    4.13802   4.14128   4.15866   4.16779   4.17295
 Alpha virt. eigenvalues --    4.17559   4.18615   4.19085   4.19800   4.19951
 Alpha virt. eigenvalues --    4.20787   4.22527   4.22980   4.24271   4.24886
 Alpha virt. eigenvalues --    4.25391   4.25645   4.26593   4.27541   4.27970
 Alpha virt. eigenvalues --    4.30199   4.31448   4.32339   4.34233   4.36893
 Alpha virt. eigenvalues --    4.37582   4.40310   4.40998   4.44276   4.47743
 Alpha virt. eigenvalues --    4.50582   4.51537   4.51863   4.54045   4.55836
 Alpha virt. eigenvalues --    4.56555   4.57563   4.58487   4.62217   4.63543
 Alpha virt. eigenvalues --    4.64483   4.67378   4.68531   4.71896   4.72270
 Alpha virt. eigenvalues --    4.75305   4.78258   4.78315   4.79549   4.81732
 Alpha virt. eigenvalues --    4.84259   4.85694   4.87775   4.90538   4.91852
 Alpha virt. eigenvalues --    4.92061   4.92557   4.95805   5.02261   5.06901
 Alpha virt. eigenvalues --    5.07888   5.11323   5.15468   5.17906   5.19572
 Alpha virt. eigenvalues --    5.20767   5.22567   5.25516   5.26922   5.28950
 Alpha virt. eigenvalues --    5.32671   5.35820   5.41189   5.42127   5.45853
 Alpha virt. eigenvalues --    5.51527   5.59067   5.66483   5.67988   5.68688
 Alpha virt. eigenvalues --    5.72245   6.05209  21.97156  22.30586  22.65273
 Alpha virt. eigenvalues --   22.68434  22.70896  22.74467  22.76241  22.78429
 Alpha virt. eigenvalues --   22.80635  22.88299  22.90382  22.93597  22.99451
 Alpha virt. eigenvalues --   23.05048  23.07622  23.13735  23.17336  23.36050
 Alpha virt. eigenvalues --   23.46554  23.93096
          Condensed to atoms (all electrons):
               1          2          3          4          5          6
     1  C    4.878945   0.524787  -0.046807  -0.039509  -0.046429   0.524621
     2  C    0.524787   4.899240   0.508806  -0.057632  -0.042056  -0.043277
     3  C   -0.046807   0.508806   5.021511   0.493882  -0.034405  -0.041750
     4  C   -0.039509  -0.057632   0.493882   5.022912   0.498531  -0.056884
     5  C   -0.046429  -0.042056  -0.034405   0.498531   5.022635   0.507430
     6  C    0.524621  -0.043277  -0.041750  -0.056884   0.507430   4.899365
     7  H    0.408716  -0.033168   0.003591   0.001235   0.003536  -0.033171
     8  H   -0.030840   0.407752  -0.030727   0.004361   0.000206   0.003337
     9  H    0.003211  -0.024883   0.397985  -0.038418   0.006167  -0.000551
    10  H    0.003149  -0.000525   0.005890  -0.037508   0.398589  -0.025475
    11  H   -0.030906   0.003422   0.000129   0.004341  -0.030684   0.407777
    12  C   -0.000024  -0.000013   0.002634   0.008514  -0.001470   0.000087
    13  C    0.000203   0.001104   0.005219  -0.083244   0.007155  -0.000904
    14  C   -0.003984   0.007175  -0.081281   0.279049  -0.090535   0.007415
    15  C    0.000409  -0.001415   0.006119  -0.099774   0.008574   0.000876
    16  H   -0.000012   0.000298   0.003029  -0.001922   0.000762  -0.000180
    17  H   -0.000019  -0.000161   0.000244   0.000998   0.002089   0.000457
    18  C    0.000002  -0.000017   0.000099   0.001782   0.000188  -0.000005
    19  C   -0.000036   0.000133  -0.000428   0.008730   0.003461  -0.000184
    20  C    0.000000  -0.000001   0.000130  -0.002020   0.000331  -0.000011
    21  C    0.000000  -0.000000  -0.000002  -0.000007  -0.000001   0.000000
    22  C    0.000000   0.000000   0.000000  -0.000015   0.000004  -0.000000
    23  C   -0.000000  -0.000000   0.000024  -0.000912   0.000019   0.000000
    24  H   -0.000000   0.000000   0.000005   0.000193   0.000053  -0.000002
    25  H    0.000000   0.000000   0.000000   0.000001  -0.000000  -0.000000
    26  C    0.000000  -0.000000   0.000001   0.000022   0.000001  -0.000000
    27  C    0.000000  -0.000000   0.000000  -0.000001   0.000000  -0.000000
    28  C   -0.000000  -0.000000   0.000000  -0.000000   0.000000   0.000000
    29  C    0.000000  -0.000000  -0.000000  -0.000000  -0.000000  -0.000000
    30  H   -0.000000   0.000000   0.000000   0.000000  -0.000000   0.000000
    31  H    0.000000  -0.000002  -0.000034  -0.000094   0.000049  -0.000000
    32  H    0.000000  -0.000000   0.000000   0.000007   0.000000  -0.000000
    33  H   -0.000000   0.000000   0.000000   0.000000   0.000000  -0.000000
    34  H   -0.000000  -0.000000   0.000000   0.000000   0.000000   0.000000
               7          8          9         10         11         12
     1  C    0.408716  -0.030840   0.003211   0.003149  -0.030906  -0.000024
     2  C   -0.033168   0.407752  -0.024883  -0.000525   0.003422  -0.000013
     3  C    0.003591  -0.030727   0.397985   0.005890   0.000129   0.002634
     4  C    0.001235   0.004361  -0.038418  -0.037508   0.004341   0.008514
     5  C    0.003536   0.000206   0.006167   0.398589  -0.030684  -0.001470
     6  C   -0.033171   0.003337  -0.000551  -0.025475   0.407777   0.000087
     7  H    0.515177  -0.003910  -0.000273  -0.000271  -0.003923   0.000000
     8  H   -0.003910   0.508456  -0.003404   0.000063  -0.000277  -0.000002
     9  H   -0.000273  -0.003404   0.484724  -0.000243   0.000062   0.000476
    10  H   -0.000271   0.000063  -0.000243   0.483032  -0.003393  -0.000212
    11  H   -0.003923  -0.000277   0.000062  -0.003393   0.508581  -0.000001
    12  C    0.000000  -0.000002   0.000476  -0.000212  -0.000001   5.165625
    13  C   -0.000006   0.000017   0.001292   0.001105   0.000035   0.501337
    14  C    0.000099  -0.000015   0.005771   0.004352  -0.000053  -0.033777
    15  C   -0.000010   0.000033   0.001118   0.002685   0.000010  -0.086650
    16  H   -0.000000   0.000046  -0.001547   0.000075   0.000002  -0.018861
    17  H    0.000000   0.000002   0.000058  -0.001685   0.000042  -0.000992
    18  C   -0.000000   0.000000  -0.000026  -0.000068   0.000000   0.487458
    19  C    0.000000   0.000000  -0.000095   0.000524   0.000000  -0.076053
    20  C   -0.000000   0.000000   0.000012   0.000191   0.000000   0.016711
    21  C   -0.000000  -0.000000  -0.000000  -0.000004  -0.000000  -0.000829
    22  C   -0.000000  -0.000000   0.000000   0.000001   0.000000   0.023700
    23  C    0.000000   0.000000   0.000008   0.000006   0.000000  -0.107642
    24  H   -0.000000   0.000000   0.000001   0.000037   0.000000  -0.000658
    25  H    0.000000   0.000000   0.000000   0.000000   0.000000   0.000094
    26  C   -0.000000   0.000000   0.000000   0.000000   0.000000  -0.042136
    27  C   -0.000000   0.000000  -0.000000   0.000000   0.000000   0.000634
    28  C   -0.000000   0.000000   0.000000   0.000000   0.000000   0.002302
    29  C   -0.000000  -0.000000  -0.000000  -0.000000  -0.000000  -0.000792
    30  H   -0.000000   0.000000   0.000000  -0.000000   0.000000  -0.000007
    31  H   -0.000000   0.000000   0.000041   0.000003   0.000000   0.377081
    32  H    0.000000   0.000000   0.000000   0.000000   0.000000   0.002623
    33  H    0.000000   0.000000   0.000000   0.000000   0.000000   0.000018
    34  H    0.000000   0.000000   0.000000   0.000000   0.000000   0.000155
              13         14         15         16         17         18
     1  C    0.000203  -0.003984   0.000409  -0.000012  -0.000019   0.000002
     2  C    0.001104   0.007175  -0.001415   0.000298  -0.000161  -0.000017
     3  C    0.005219  -0.081281   0.006119   0.003029   0.000244   0.000099
     4  C   -0.083244   0.279049  -0.099774  -0.001922   0.000998   0.001782
     5  C    0.007155  -0.090535   0.008574   0.000762   0.002089   0.000188
     6  C   -0.000904   0.007415   0.000876  -0.000180   0.000457  -0.000005
     7  H   -0.000006   0.000099  -0.000010  -0.000000   0.000000  -0.000000
     8  H    0.000017  -0.000015   0.000033   0.000046   0.000002   0.000000
     9  H    0.001292   0.005771   0.001118  -0.001547   0.000058  -0.000026
    10  H    0.001105   0.004352   0.002685   0.000075  -0.001685  -0.000068
    11  H    0.000035  -0.000053   0.000010   0.000002   0.000042   0.000000
    12  C    0.501337  -0.033777  -0.086650  -0.018861  -0.000992   0.487458
    13  C    5.027716   0.486803  -0.050708   0.389688   0.006325  -0.063200
    14  C    0.486803   4.973922   0.484020  -0.034319  -0.017854  -0.025999
    15  C   -0.050708   0.484020   5.372634   0.010840   0.361617  -0.066038
    16  H    0.389688  -0.034319   0.010840   0.485689  -0.000260   0.003085
    17  H    0.006325  -0.017854   0.361617  -0.000260   0.478489   0.008183
    18  C   -0.063200  -0.025999  -0.066038   0.003085   0.008183   4.996230
    19  C   -0.010869  -0.056451   0.423355  -0.000949  -0.014467   0.454891
    20  C    0.003538   0.010775  -0.132656   0.000001  -0.001650  -0.030505
    21  C   -0.000458  -0.001792   0.010724   0.000009   0.000153  -0.066884
    22  C   -0.000287  -0.000172  -0.001954   0.000012   0.000129  -0.031888
    23  C   -0.003018  -0.002621   0.024455   0.000002  -0.000437   0.338104
    24  H    0.000198   0.001491  -0.006336  -0.000004   0.005968   0.012405
    25  H   -0.000011   0.000070  -0.000287   0.000000  -0.000049  -0.001315
    26  C    0.003880  -0.000516  -0.000851   0.000085   0.000041  -0.106555
    27  C    0.000041  -0.000019  -0.000106   0.000000  -0.000003   0.016589
    28  C   -0.000311   0.000006   0.000121   0.000006  -0.000001  -0.000281
    29  C    0.000022  -0.000001  -0.000039  -0.000001   0.000000  -0.002379
    30  H   -0.000000   0.000000  -0.000000  -0.000000  -0.000000   0.000181
    31  H   -0.006729  -0.000156   0.001801  -0.002430   0.000053  -0.018655
    32  H    0.002121  -0.000102   0.000068   0.000014   0.000001  -0.007356
    33  H   -0.000001   0.000001  -0.000004   0.000000  -0.000000  -0.000334
    34  H    0.000006  -0.000000   0.000001   0.000000   0.000000  -0.000306
              19         20         21         22         23         24
     1  C   -0.000036   0.000000   0.000000   0.000000  -0.000000  -0.000000
     2  C    0.000133  -0.000001  -0.000000   0.000000  -0.000000   0.000000
     3  C   -0.000428   0.000130  -0.000002   0.000000   0.000024   0.000005
     4  C    0.008730  -0.002020  -0.000007  -0.000015  -0.000912   0.000193
     5  C    0.003461   0.000331  -0.000001   0.000004   0.000019   0.000053
     6  C   -0.000184  -0.000011   0.000000  -0.000000   0.000000  -0.000002
     7  H    0.000000  -0.000000  -0.000000  -0.000000   0.000000  -0.000000
     8  H    0.000000   0.000000  -0.000000  -0.000000   0.000000   0.000000
     9  H   -0.000095   0.000012  -0.000000   0.000000   0.000008   0.000001
    10  H    0.000524   0.000191  -0.000004   0.000001   0.000006   0.000037
    11  H    0.000000   0.000000  -0.000000   0.000000   0.000000   0.000000
    12  C   -0.076053   0.016711  -0.000829   0.023700  -0.107642  -0.000658
    13  C   -0.010869   0.003538  -0.000458  -0.000287  -0.003018   0.000198
    14  C   -0.056451   0.010775  -0.001792  -0.000172  -0.002621   0.001491
    15  C    0.423355  -0.132656   0.010724  -0.001954   0.024455  -0.006336
    16  H   -0.000949   0.000001   0.000009   0.000012   0.000002  -0.000004
    17  H   -0.014467  -0.001650   0.000153   0.000129  -0.000437   0.005968
    18  C    0.454891  -0.030505  -0.066884  -0.031888   0.338104   0.012405
    19  C    4.821562   0.457693  -0.047039  -0.056628  -0.025549  -0.031993
    20  C    0.457693   5.073611   0.546903  -0.045212  -0.064120   0.395682
    21  C   -0.047039   0.546903   5.058426   0.467937  -0.035183  -0.026070
    22  C   -0.056628  -0.045212   0.467937   4.821154   0.427569   0.002342
    23  C   -0.025549  -0.064120  -0.035183   0.427569   5.023333  -0.000997
    24  H   -0.031993   0.395682  -0.026070   0.002342  -0.000997   0.513707
    25  H    0.002832  -0.022522   0.391840  -0.033077   0.014347  -0.003398
    26  C    0.022106  -0.000319   0.017599  -0.085404   0.493374   0.000153
    27  C   -0.002188   0.010019  -0.124976   0.523944  -0.059826  -0.000405
    28  C   -0.000083  -0.000002  -0.000269  -0.022919  -0.067341  -0.000015
    29  C    0.000111  -0.001075   0.009671  -0.060879  -0.041070   0.000045
    30  H   -0.000006   0.000035  -0.000525   0.003316   0.001092  -0.000000
    31  H    0.003518  -0.000154  -0.000117   0.000558  -0.009148   0.000012
    32  H    0.000375  -0.000051  -0.000266   0.003638  -0.020059  -0.000001
    33  H    0.000190   0.000458  -0.006047  -0.035709   0.015345  -0.000041
    34  H   -0.000005  -0.000002   0.000035   0.001166   0.005977   0.000000
              25         26         27         28         29         30
     1  C    0.000000   0.000000   0.000000  -0.000000   0.000000  -0.000000
     2  C    0.000000  -0.000000  -0.000000  -0.000000  -0.000000   0.000000
     3  C    0.000000   0.000001   0.000000   0.000000  -0.000000   0.000000
     4  C    0.000001   0.000022  -0.000001  -0.000000  -0.000000   0.000000
     5  C   -0.000000   0.000001   0.000000   0.000000  -0.000000  -0.000000
     6  C   -0.000000  -0.000000  -0.000000   0.000000  -0.000000   0.000000
     7  H    0.000000  -0.000000  -0.000000  -0.000000  -0.000000  -0.000000
     8  H    0.000000   0.000000   0.000000   0.000000  -0.000000   0.000000
     9  H    0.000000   0.000000  -0.000000   0.000000  -0.000000   0.000000
    10  H    0.000000   0.000000   0.000000   0.000000  -0.000000  -0.000000
    11  H    0.000000   0.000000   0.000000   0.000000  -0.000000   0.000000
    12  C    0.000094  -0.042136   0.000634   0.002302  -0.000792  -0.000007
    13  C   -0.000011   0.003880   0.000041  -0.000311   0.000022  -0.000000
    14  C    0.000070  -0.000516  -0.000019   0.000006  -0.000001   0.000000
    15  C   -0.000287  -0.000851  -0.000106   0.000121  -0.000039  -0.000000
    16  H    0.000000   0.000085   0.000000   0.000006  -0.000001  -0.000000
    17  H   -0.000049   0.000041  -0.000003  -0.000001   0.000000  -0.000000
    18  C   -0.001315  -0.106555   0.016589  -0.000281  -0.002379   0.000181
    19  C    0.002832   0.022106  -0.002188  -0.000083   0.000111  -0.000006
    20  C   -0.022522  -0.000319   0.010019  -0.000002  -0.001075   0.000035
    21  C    0.391840   0.017599  -0.124976  -0.000269   0.009671  -0.000525
    22  C   -0.033077  -0.085404   0.523944  -0.022919  -0.060879   0.003316
    23  C    0.014347   0.493374  -0.059826  -0.067341  -0.041070   0.001092
    24  H   -0.003398   0.000153  -0.000405  -0.000015   0.000045  -0.000000
    25  H    0.514045  -0.000400  -0.006224   0.000041   0.000155  -0.000026
    26  C   -0.000400   5.138672  -0.087989   0.537354  -0.023841   0.005047
    27  C   -0.006224  -0.087989   5.046575  -0.034176   0.535798  -0.033235
    28  C    0.000041   0.537354  -0.034176   4.881579   0.495830  -0.036257
    29  C    0.000155  -0.023841   0.535798   0.495830   4.885937   0.411180
    30  H   -0.000026   0.005047  -0.033235  -0.036257   0.411180   0.515542
    31  H   -0.000001   0.001539   0.000094   0.001202  -0.000131  -0.000001
    32  H    0.000012   0.384393   0.001764  -0.019197   0.000801  -0.000351
    33  H    0.006138  -0.000001   0.397080   0.002554  -0.029736  -0.003616
    34  H   -0.000003  -0.029790   0.004145   0.407164  -0.036411  -0.004122
              31         32         33         34
     1  C    0.000000   0.000000  -0.000000  -0.000000
     2  C   -0.000002  -0.000000   0.000000  -0.000000
     3  C   -0.000034   0.000000   0.000000   0.000000
     4  C   -0.000094   0.000007   0.000000   0.000000
     5  C    0.000049   0.000000   0.000000   0.000000
     6  C   -0.000000  -0.000000  -0.000000   0.000000
     7  H   -0.000000   0.000000   0.000000   0.000000
     8  H    0.000000   0.000000   0.000000   0.000000
     9  H    0.000041   0.000000   0.000000   0.000000
    10  H    0.000003   0.000000   0.000000   0.000000
    11  H    0.000000   0.000000   0.000000   0.000000
    12  C    0.377081   0.002623   0.000018   0.000155
    13  C   -0.006729   0.002121  -0.000001   0.000006
    14  C   -0.000156  -0.000102   0.000001  -0.000000
    15  C    0.001801   0.000068  -0.000004   0.000001
    16  H   -0.002430   0.000014   0.000000   0.000000
    17  H    0.000053   0.000001  -0.000000   0.000000
    18  C   -0.018655  -0.007356  -0.000334  -0.000306
    19  C    0.003518   0.000375   0.000190  -0.000005
    20  C   -0.000154  -0.000051   0.000458  -0.000002
    21  C   -0.000117  -0.000266  -0.006047   0.000035
    22  C    0.000558   0.003638  -0.035709   0.001166
    23  C   -0.009148  -0.020059   0.015345   0.005977
    24  H    0.000012  -0.000001  -0.000041   0.000000
    25  H   -0.000001   0.000012   0.006138  -0.000003
    26  C    0.001539   0.384393  -0.000001  -0.029790
    27  C    0.000094   0.001764   0.397080   0.004145
    28  C    0.001202  -0.019197   0.002554   0.407164
    29  C   -0.000131   0.000801  -0.029736  -0.036411
    30  H   -0.000001  -0.000351  -0.003616  -0.004122
    31  H    0.507568   0.006209   0.000001   0.000036
    32  H    0.006209   0.509767   0.000067  -0.003692
    33  H    0.000001   0.000067   0.516321  -0.000327
    34  H    0.000036  -0.003692  -0.000327   0.513689
 Mulliken charges:
               1
     1  C   -0.145476
     2  C   -0.149566
     3  C   -0.213863
     4  C    0.093383
     5  C   -0.214198
     6  C   -0.148970
     7  H    0.142378
     8  H    0.144902
     9  H    0.168517
    10  H    0.169682
    11  H    0.144835
    12  C   -0.219332
    13  C   -0.218060
    14  C    0.088696
    15  C   -0.262632
    16  H    0.166845
    17  H    0.172731
    18  C    0.102614
    19  C    0.123542
    20  C   -0.215788
    21  C   -0.192827
    22  C    0.098673
    23  C    0.094268
    24  H    0.137628
    25  H    0.137737
    26  C   -0.226465
    27  C   -0.187538
    28  C   -0.147306
    29  C   -0.143194
    30  H    0.141753
    31  H    0.137890
    32  H    0.139214
    33  H    0.137642
    34  H    0.142285
 Sum of Mulliken charges =  -0.00000
 Mulliken charges with hydrogens summed into heavy atoms:
               1
     1  C   -0.003098
     2  C   -0.004664
     3  C   -0.045347
     4  C    0.093383
     5  C   -0.044516
     6  C   -0.004135
    12  C   -0.081442
    13  C   -0.051215
    14  C    0.088696
    15  C   -0.089901
    18  C    0.102614
    19  C    0.123542
    20  C   -0.078160
    21  C   -0.055090
    22  C    0.098673
    23  C    0.094268
    26  C   -0.087251
    27  C   -0.049896
    28  C   -0.005021
    29  C   -0.001441
 Electronic spatial extent (au):  <R**2>=           7367.0930
 Charge=              0.0000 electrons
 Dipole moment (field-independent basis, Debye):
    X=             -0.0465    Y=             -0.0358    Z=              0.0020  Tot=              0.0587
 Quadrupole moment (field-independent basis, Debye-Ang):
   XX=            -99.9910   YY=           -103.9630   ZZ=           -122.7460
   XY=             -0.2833   XZ=              0.2264   YZ=              1.3825
 Traceless Quadrupole moment (field-independent basis, Debye-Ang):
   XX=              8.9090   YY=              4.9370   ZZ=            -13.8460
   XY=             -0.2833   XZ=              0.2264   YZ=              1.3825
 Octapole moment (field-independent basis, Debye-Ang**2):
  XXX=              2.2268  YYY=             -0.5748  ZZZ=              0.0400  XYY=             13.1243
  XXY=              0.5357  XXZ=             -1.9860  XZZ=            -13.7950  YZZ=              0.0477
  YYZ=             -0.2550  XYZ=            -23.8327
 Hexadecapole moment (field-independent basis, Debye-Ang**3):
 XXXX=          -8026.3740 YYYY=          -1072.4772 ZZZZ=           -270.1621 XXXY=            -17.3288
 XXXZ=             15.8544 YYYX=             -3.8316 YYYZ=            -10.3537 ZZZX=              0.2848
 ZZZY=             13.4961 XXYY=          -1580.4241 XXZZ=          -1653.3143 YYZZ=           -244.8305
 XXYZ=             65.8868 YYXZ=              2.0194 ZZXY=              0.9247
 N-N= 1.305142109800D+03 E-N=-4.396516088082D+03  KE= 7.663729096656D+02
 ******************************Gaussian NBO Version 3.1******************************
             N A T U R A L   A T O M I C   O R B I T A L   A N D
          N A T U R A L   B O N D   O R B I T A L   A N A L Y S I S
 ******************************Gaussian NBO Version 3.1******************************
       /RESON  / : Allow strongly delocalized NBO set

 Analyzing the SCF density

 Job title: Structure697                                                    

 Storage needed:   1491054 in NPA,   1985763 in NBO (1048569948 available)
 GSVD:  LWork=      206824 too small for GESVD, short by      367358 words or      367358 for optimal perf.


 NATURAL POPULATIONS:  Natural atomic orbital occupancies 
                                                          
   NAO  Atom  No  lang   Type(AO)    Occupancy      Energy
 ----------------------------------------------------------
     1    C    1  S      Cor( 1S)     1.99924     -10.38249
     2    C    1  S      Val( 2S)     0.97666      -0.23616
     3    C    1  S      Ryd( 3S)     0.00086       1.19275
     4    C    1  S      Ryd( 4S)     0.00007       1.33029
     5    C    1  S      Ryd( 5S)     0.00000      21.62704
     6    C    1  px     Val( 2p)     1.16964      -0.07207
     7    C    1  px     Ryd( 3p)     0.00458       1.19058
     8    C    1  px     Ryd( 4p)     0.00016       2.10212
     9    C    1  py     Val( 2p)     1.03103      -0.08410
    10    C    1  py     Ryd( 3p)     0.00289       0.88287
    11    C    1  py     Ryd( 4p)     0.00035       1.92066
    12    C    1  pz     Val( 2p)     1.01784      -0.09664
    13    C    1  pz     Ryd( 3p)     0.00242       0.80778
    14    C    1  pz     Ryd( 4p)     0.00036       1.69874
    15    C    1  dxy    Ryd( 3d)     0.00130       1.59934
    16    C    1  dxy    Ryd( 4d)     0.00036       3.11592
    17    C    1  dxz    Ryd( 3d)     0.00093       1.50318
    18    C    1  dxz    Ryd( 4d)     0.00025       2.99045
    19    C    1  dyz    Ryd( 3d)     0.00091       1.74324
    20    C    1  dyz    Ryd( 4d)     0.00013       3.42478
    21    C    1  dx2y2  Ryd( 3d)     0.00070       1.82585
    22    C    1  dx2y2  Ryd( 4d)     0.00061       3.32197
    23    C    1  dz2    Ryd( 3d)     0.00025       1.55436
    24    C    1  dz2    Ryd( 4d)     0.00029       3.03568
    25    C    1  f(0)   Ryd( 4f)     0.00008       3.51242
    26    C    1  f(C1)  Ryd( 4f)     0.00007       3.55046
    27    C    1  f(S1)  Ryd( 4f)     0.00018       3.49927
    28    C    1  f(C2)  Ryd( 4f)     0.00014       3.56891
    29    C    1  f(S2)  Ryd( 4f)     0.00020       3.86356
    30    C    1  f(C3)  Ryd( 4f)     0.00005       3.85536
    31    C    1  f(S3)  Ryd( 4f)     0.00004       3.63762
 
    32    C    2  S      Cor( 1S)     1.99924     -10.38385
    33    C    2  S      Val( 2S)     0.97589      -0.23576
    34    C    2  S      Ryd( 3S)     0.00088       1.16082
    35    C    2  S      Ryd( 4S)     0.00008       1.31951
    36    C    2  S      Ryd( 5S)     0.00000      21.63277
    37    C    2  px     Val( 2p)     1.08036      -0.06596
    38    C    2  px     Ryd( 3p)     0.00389       1.05777
    39    C    2  px     Ryd( 4p)     0.00027       2.18886
    40    C    2  py     Val( 2p)     1.08034      -0.08856
    41    C    2  py     Ryd( 3p)     0.00326       0.98012
    42    C    2  py     Ryd( 4p)     0.00023       1.83665
    43    C    2  pz     Val( 2p)     1.05052      -0.09938
    44    C    2  pz     Ryd( 3p)     0.00259       0.88277
    45    C    2  pz     Ryd( 4p)     0.00027       1.65236
    46    C    2  dxy    Ryd( 3d)     0.00083       1.70995
    47    C    2  dxy    Ryd( 4d)     0.00052       3.35404
    48    C    2  dxz    Ryd( 3d)     0.00058       1.58110
    49    C    2  dxz    Ryd( 4d)     0.00040       3.19943
    50    C    2  dyz    Ryd( 3d)     0.00103       1.58642
    51    C    2  dyz    Ryd( 4d)     0.00024       3.29773
    52    C    2  dx2y2  Ryd( 3d)     0.00145       1.60820
    53    C    2  dx2y2  Ryd( 4d)     0.00038       3.31704
    54    C    2  dz2    Ryd( 3d)     0.00050       1.41296
    55    C    2  dz2    Ryd( 4d)     0.00014       3.04547
    56    C    2  f(0)   Ryd( 4f)     0.00016       3.50342
    57    C    2  f(C1)  Ryd( 4f)     0.00006       3.57657
    58    C    2  f(S1)  Ryd( 4f)     0.00015       3.37154
    59    C    2  f(C2)  Ryd( 4f)     0.00013       3.64172
    60    C    2  f(S2)  Ryd( 4f)     0.00012       3.78174
    61    C    2  f(C3)  Ryd( 4f)     0.00007       3.92262
    62    C    2  f(S3)  Ryd( 4f)     0.00007       3.73549
 
    63    C    3  S      Cor( 1S)     1.99916     -10.38280
    64    C    3  S      Val( 2S)     0.97013      -0.22882
    65    C    3  S      Ryd( 3S)     0.00090       1.43292
    66    C    3  S      Ryd( 4S)     0.00009       1.50444
    67    C    3  S      Ryd( 5S)     0.00001      21.29259
    68    C    3  px     Val( 2p)     1.07564      -0.06827
    69    C    3  px     Ryd( 3p)     0.00311       1.15433
    70    C    3  px     Ryd( 4p)     0.00018       2.40856
    71    C    3  py     Val( 2p)     1.08419      -0.08753
    72    C    3  py     Ryd( 3p)     0.00323       0.94171
    73    C    3  py     Ryd( 4p)     0.00028       2.16451
    74    C    3  pz     Val( 2p)     1.05126      -0.09747
    75    C    3  pz     Ryd( 3p)     0.00232       0.83644
    76    C    3  pz     Ryd( 4p)     0.00031       1.90290
    77    C    3  dxy    Ryd( 3d)     0.00123       1.65089
    78    C    3  dxy    Ryd( 4d)     0.00054       3.34102
    79    C    3  dxz    Ryd( 3d)     0.00082       1.57885
    80    C    3  dxz    Ryd( 4d)     0.00041       3.24071
    81    C    3  dyz    Ryd( 3d)     0.00096       1.62665
    82    C    3  dyz    Ryd( 4d)     0.00019       3.33526
    83    C    3  dx2y2  Ryd( 3d)     0.00121       1.71849
    84    C    3  dx2y2  Ryd( 4d)     0.00031       3.38332
    85    C    3  dz2    Ryd( 3d)     0.00064       1.46723
    86    C    3  dz2    Ryd( 4d)     0.00010       3.08759
    87    C    3  f(0)   Ryd( 4f)     0.00016       3.56571
    88    C    3  f(C1)  Ryd( 4f)     0.00008       3.60471
    89    C    3  f(S1)  Ryd( 4f)     0.00021       3.37746
    90    C    3  f(C2)  Ryd( 4f)     0.00016       3.63782
    91    C    3  f(S2)  Ryd( 4f)     0.00012       3.81630
    92    C    3  f(C3)  Ryd( 4f)     0.00010       3.93513
    93    C    3  f(S3)  Ryd( 4f)     0.00007       3.78194
 
    94    C    4  S      Cor( 1S)     1.99911     -10.39117
    95    C    4  S      Val( 2S)     0.90913      -0.20152
    96    C    4  S      Ryd( 3S)     0.00077       1.59164
    97    C    4  S      Ryd( 4S)     0.00006       1.66774
    98    C    4  S      Ryd( 5S)     0.00000      21.39303
    99    C    4  px     Val( 2p)     1.04125      -0.05644
   100    C    4  px     Ryd( 3p)     0.00630       1.26059
   101    C    4  px     Ryd( 4p)     0.00047       1.90090
   102    C    4  py     Val( 2p)     1.04865      -0.08676
   103    C    4  py     Ryd( 3p)     0.00422       1.05223
   104    C    4  py     Ryd( 4p)     0.00032       1.45267
   105    C    4  pz     Val( 2p)     1.03089      -0.09718
[...]
 48601,0.01389035,-0.00222408,-0.02150648,-0.00030272,-0.00044084,0.000
 13877,-0.00025623,0.00000495,0.00023306,0.01451907,-0.04672461,0.02336
 547,-0.01741361,-0.12434616,0.07035853,0.12617033,-0.21185296,-0.04626
 527,-0.15371854,0.61792284,-0.00000009,0.00003801,-0.00000087,0.000020
 19,0.00001655,-0.00002424,0.00000437,-0.00005079,-0.00005132,0.0000176
 7,-0.00001667,-0.00005439,-0.00006341,0.00007673,-0.00001693,0.0000479
 8,0.00000758,0.00002759,-0.00001440,0.00000726,-0.00000352,-0.00000404
 ,0.00001303,-0.00000180,-0.00002650,0.00000900,0.00001337,-0.00002811,
 -0.00000014,0.00002757,0.00000110,0.00000443,-0.00001557,-0.00252864,0
 .00407454,-0.00018581,-0.00099537,-0.00239911,0.00322079,0.00314326,-0
 .00186683,-0.00272901,-0.00168847,0.00461260,-0.00122823,-0.00000836,0
 .00000873,0.00009693,-0.00002126,0.00003865,0.00000720,0.00081333,-0.0
 0891257,0.00513586,0.00667181,-0.00724441,-0.00251629,-0.00477005,0.01
 160497,-0.00309719,-0.00440648,-0.00309395,0.01467541,0.00270032,0.055
 22904,-0.03863079,0.02564568,-0.00771204,-0.03392807,-0.00036553,0.000
 12677,-0.00039852,0.00009683,-0.00034073,0.00002433,-0.02169680,-0.017
 16751,0.04859129,0.15915227,0.01742281,-0.27832845,0.04132855,0.008571
 73,-0.12230253,-0.22179674,-0.17641134,0.55335186,-0.00000045,0.000002
 27,0.00000005,-0.00000263,0.00000094,-0.00000378,-0.00000128,0.0000002
 6,0.00000253,0.00001889,0.00000337,0.00001385,0.00000067,0.00000047,-0
 .00000024,-0.00000300,-0.00000132,-0.00000149,0.00000108,-0.00000095,0
 .00000060,0.00000041,-0.00000041,-0.00000008,0.00000230,-0.00000084,-0
 .00000051,0.00000191,-0.00000103,-0.00000091,0.00000024,0.00000034,0.0
 0000148,0.00001750,-0.00003538,0.00006165,0.00002387,-0.00000733,-0.00
 011598,-0.00006364,0.00003782,0.00003498,0.00007482,-0.00007089,0.0000
 1937,0.00000085,0.00000107,0.00000072,-0.00000036,0.00000406,-0.000005
 11,-0.00040759,-0.00014892,-0.00057914,-0.00010699,0.00022134,0.000076
 60,-0.00033363,-0.00030152,0.00008728,0.00048699,-0.00062084,0.0000995
 9,0.00247212,0.00235798,0.00632629,-0.00105174,-0.00019598,0.00048457,
 -0.00000517,-0.00008685,0.00004078,0.00002749,0.00004417,0.00004380,0.
 00066210,0.00453394,0.00374019,0.00543602,-0.01604806,0.00957845,0.002
 40603,0.01644456,-0.01254500,-0.05030082,0.02555106,-0.00321224,0.0436
 3547,-0.00000101,-0.00000491,0.00000483,-0.00000033,0.00000438,-0.0000
 0082,-0.00000313,-0.00001193,0.00000581,0.00000449,0.00002908,-0.00000
 258,0.00000158,-0.00001127,0.00000782,0.00000044,-0.00000106,-0.000002
 49,0.00000086,-0.00000299,0.00000230,0.00000041,-0.00000315,-0.0000000
 5,0.00000199,0.00000673,0.00000230,-0.00000046,-0.00000040,-0.00000617
 ,-0.00000053,-0.00000097,0.00000385,0.00004226,0.00000165,-0.00002118,
 -0.00004150,-0.00004191,0.00002494,0.00002538,-0.00001073,-0.00003863,
 -0.00000434,0.00003914,0.00002194,0.00000380,-0.00000314,0.00000087,-0
 .00000503,-0.00000094,0.00000402,-0.00032563,-0.00024829,-0.00012164,0
 .00007173,-0.00003475,-0.00000075,-0.00027439,0.00003227,-0.00001911,0
 .00016300,-0.00017821,0.00007275,0.00202390,0.00318966,0.00177653,0.00
 003796,0.00025305,-0.00085656,-0.00000279,-0.00002108,-0.00000019,0.00
 001421,0.00002245,0.00003382,0.00489247,-0.00056459,-0.00092669,0.0012
 9248,0.00059286,0.00040322,-0.00074903,-0.01366432,0.01342095,0.025302
 24,-0.25447426,0.13490731,-0.02952709,0.26600813,0.00000014,0.00000743
 ,-0.00000285,-0.00000219,0.00000116,-0.00000416,-0.00000024,0.00000562
 ,-0.00000540,0.00001116,-0.00000870,0.00002733,-0.00000291,0.00000529,
 -0.00000647,-0.00000171,-0.00000011,0.00000264,0.00000009,0.00000075,-
 0.00000030,0.00000018,0.00000177,-0.00000036,0.00000082,-0.00000343,-0
 .00000083,0.00000234,-0.00000117,0.00000490,0.00000071,0.00000087,-0.0
 0000049,0.00000643,0.00008395,-0.00002307,-0.00008703,-0.00001844,0.00
 005871,0.00004346,-0.00004781,-0.00004028,-0.00002760,0.00009715,0.000
 00588,-0.00000215,0.00000552,0.00000019,0.00000133,-0.00000652,0.00000
 199,-0.00044195,-0.00034770,-0.00012122,0.00019135,-0.00018545,-0.0000
 0896,0.00006879,0.00001206,-0.00054550,-0.00050542,0.00107774,0.000001
 89,0.00659090,0.00133572,-0.00058906,0.00029262,-0.00055347,-0.0007339
 5,-0.00002417,0.00010702,-0.00007849,0.00006572,-0.00000499,0.00000751
 ,0.00347218,-0.00046422,0.00224168,-0.00379464,0.02254800,-0.00927883,
 0.00070767,-0.00854560,0.00819667,-0.00300879,0.13459824,-0.13734950,0
 .00016783,-0.14723577,0.13926154,0.00000026,0.00000413,0.00001511,0.00
 002513,0.00000451,0.00001152,-0.00006622,-0.00009360,0.00001584,0.0001
 0161,0.00003455,-0.00006700,-0.00008877,-0.00002668,0.00000006,0.00002
 056,-0.00005047,-0.00000499,-0.00000960,-0.00000221,0.00000083,0.00000
 100,-0.00000517,0.00000247,-0.00000182,-0.00003328,0.00005889,-0.00001
 639,-0.00002478,-0.00001161,0.00000837,0.00000063,0.00000260,-0.152579
 17,-0.00160686,0.14713547,0.00405836,0.00131757,-0.00133708,0.00525518
 ,0.00275603,0.00222546,-0.00033159,0.00037004,-0.00077185,-0.00194552,
 -0.00189199,-0.00221823,-0.00054927,-0.00038589,-0.00035221,-0.0074792
 2,-0.00295783,0.01544795,0.00135634,0.00474406,0.00197313,-0.00023323,
 -0.00043251,0.00087115,-0.00017535,-0.00007434,-0.00002670,-0.00004593
 ,0.00009887,-0.00004097,-0.00119458,-0.00179248,-0.00055280,-0.0001756
 9,0.00024909,0.00008652,0.00003253,0.00003903,-0.00001712,-0.00076531,
 -0.00021489,0.00025907,0.00010253,-0.00008112,0.00007081,0.00031006,-0
 .00018759,-0.00043955,0.00003166,-0.00010811,0.00000564,0.00008172,-0.
 00002042,0.00000973,0.15248408,-0.00000451,-0.00002311,0.00000980,0.00
 003353,-0.00002458,-0.00000732,0.00002017,-0.00002203,0.00002834,-0.00
 070610,0.00047124,0.00077441,-0.00000662,-0.00035183,0.00013258,0.0000
 5977,0.00002873,0.00008003,-0.00000809,-0.00000545,-0.00000112,-0.0000
 0178,-0.00001979,0.00000816,-0.00004159,-0.00004143,0.00000812,-0.0000
 2629,-0.00000110,-0.00000592,0.00000372,-0.00002690,0.00002426,-0.0014
 4581,-0.05473359,0.01565435,-0.01652476,0.00206410,0.02193542,0.002901
 48,-0.00228172,0.00448855,0.00030408,-0.00118268,-0.00005729,-0.001566
 31,-0.00016023,-0.00161775,-0.00036777,-0.00010152,-0.00025818,0.01282
 818,0.00702961,-0.01928769,0.00439880,-0.00259703,0.00085629,0.0005626
 1,0.00049419,-0.00099665,-0.00002165,0.00004277,-0.00018751,-0.0000322
 6,0.00000444,0.00001333,-0.00169003,0.00036232,-0.00021932,0.00027356,
 -0.00028710,-0.00009453,-0.00000618,-0.00001672,0.00005583,0.00053830,
 -0.00154192,-0.00004339,-0.00006566,0.00021076,0.00000594,-0.00026992,
 -0.00000110,0.00023653,-0.00009582,0.00006504,0.00005381,-0.00001609,0
 .00005874,0.00003427,0.00032764,0.05558796,0.00000244,0.00003589,-0.00
 002000,-0.00000632,0.00001178,0.00002844,-0.00005316,-0.00003724,-0.00
 009437,0.00054129,-0.00044323,-0.00047005,-0.00006804,0.00025256,-0.00
 003039,-0.00001359,-0.00006105,-0.00006014,-0.00000294,0.00000554,-0.0
 0000164,0.00000089,0.00001944,-0.00000474,0.00001490,-0.00002577,0.000
 05198,0.00000663,-0.00003155,-0.00000385,0.00000449,0.00002439,-0.0000
 1997,0.14656911,0.01648431,-0.23350700,0.01193066,-0.00035074,-0.01090
 800,0.00218461,0.00516063,0.00211164,-0.00073734,0.00007202,0.00015376
 ,-0.00235727,-0.00129181,-0.00085796,-0.00037295,-0.00025536,-0.000410
 28,0.00402183,0.00007692,-0.00211711,0.00228400,0.00001371,0.00299038,
 0.00006133,0.00040032,-0.00021491,-0.00009726,-0.00017661,0.00001952,0
 .00013136,-0.00014439,-0.00006820,-0.00067167,0.00007194,-0.00199739,0
 .00007916,-0.00007275,-0.00000244,0.00001729,-0.00000494,0.00002181,-0
 .00037583,0.00090472,-0.00092794,0.00005955,-0.00000622,0.00004257,-0.
 00040007,0.00017484,0.00021897,0.00002743,0.00004073,-0.00010996,0.000
 00996,0.00004232,0.00003825,-0.16231691,-0.02453227,0.24657320,0.00000
 102,0.00000812,0.00000081,-0.00000409,-0.00000314,-0.00001233,-0.00000
 463,0.00000316,0.00001718,0.00007649,-0.00000930,0.00000687,-0.0000014
 1,0.00001281,-0.00000899,-0.00000977,-0.00000742,-0.00000188,0.0000011
 6,0.00000095,-0.00000144,0.00000084,0.00000018,0.00000127,0.00000319,-
 0.00000687,-0.00000246,0.00000515,-0.00000123,-0.00000027,0.00000042,0
 .00000130,-0.00000205,-0.00072454,0.00035900,-0.00024826,0.00032313,-0
 .00029419,-0.00036137,-0.00000735,0.00007386,-0.00009259,0.00009230,0.
 00007997,-0.00002799,-0.00002048,-0.00000682,-0.00000142,0.00001131,-0
 .00000483,0.00001084,-0.00149549,0.00014388,-0.00179088,-0.00007918,-0
 .00004105,0.00010770,-0.00015804,-0.00008383,-0.00005076,-0.00025361,0
 .00088693,-0.00009989,0.00213954,0.00006609,0.00481774,-0.00771429,0.0
 1269715,0.00376408,0.00003304,-0.00002419,0.00002750,-0.00013503,-0.00
 002281,0.00025079,-0.16959019,0.13744278,0.06417653,-0.00017089,-0.000
 74419,-0.00007751,0.00177566,0.00081322,0.00175092,0.00524321,0.002365
 45,0.00242091,-0.00005179,-0.00001805,0.00010907,0.00180021,0.00064937
 ,-0.00047196,0.17151806,-0.00000171,0.00001306,-0.00000628,-0.00000212
 ,-0.00000126,-0.00000773,-0.00000344,0.00001331,-0.00000602,0.00002530
 ,-0.00001224,0.00005063,-0.00000301,0.00000482,-0.00000887,-0.00000164
 ,0.00000036,0.00000528,0.00000094,0.00000127,-0.00000111,0.00000040,0.
 00000300,0.00000001,0.00000043,-0.00000726,-0.00000050,0.00000450,-0.0
 0000153,0.00000616,0.00000046,0.00000092,-0.00000207,-0.00040440,-0.00
 123427,0.00094620,-0.00021491,0.00001055,0.00015656,0.00005942,-0.0001
 0979,-0.00004205,0.00007058,0.00008072,-0.00007052,-0.00000809,-0.0000
 0792,0.00000274,0.00000713,0.00002028,-0.00001177,-0.00002250,-0.00154
 211,-0.00090882,0.00010254,0.00000397,-0.00014335,-0.00010751,0.000115
 57,-0.00013933,-0.00018203,0.00018912,0.00024270,0.00058361,0.00190906
 ,0.00236449,-0.00262858,0.00697393,0.00019556,0.00002209,-0.00000057,0
 .00000161,-0.00004151,0.00000808,0.00008010,0.13696465,-0.19367493,-0.
 05395467,-0.00075257,-0.00013365,0.00053948,0.01843103,-0.01484964,-0.
 00931845,0.00188500,-0.00174823,0.00551426,0.00084051,-0.00078953,-0.0
 0045182,0.00003494,-0.00299688,0.00366219,-0.15247806,0.20801860,-0.00
 000058,-0.00000258,0.00000908,-0.00000607,0.00000871,-0.00000472,-0.00
 000794,-0.00001161,0.00000433,-0.00002207,0.00007591,0.00006427,0.0000
 0306,-0.00003689,0.00001025,-0.00000267,-0.00000302,0.00000589,0.00000
 221,-0.00000403,0.00000345,0.00000152,-0.00000531,0.00000013,0.0000088
 6,0.00001353,0.00000443,0.00000411,0.00000041,-0.00000887,0.00000104,-
 0.00000353,0.00000695,0.00037992,-0.00001931,-0.00114551,-0.00043860,0
 .00022934,0.00021350,-0.00007453,-0.00003582,0.00006512,-0.00001498,-0
 .00007259,0.00021525,-0.00000047,0.00000409,-0.00002571,-0.00000562,0.
 00000213,0.00001180,-0.00164900,-0.00117701,0.00020846,-0.00000229,0.0
 0004028,-0.00005706,-0.00003112,-0.00016858,-0.00007365,0.00072276,-0.
 00112347,0.00014686,0.00442169,0.00301900,-0.00204911,0.01554864,-0.01
 937804,-0.00203469,-0.00001007,0.00006210,0.00000302,0.00026626,0.0000
 5989,-0.00033644,0.06455388,-0.05457395,-0.07709114,-0.00007174,0.0005
 3186,-0.00099866,-0.01180752,0.01321090,0.00854160,0.00276379,0.004928
 05,0.00120985,-0.00055338,0.00064419,0.00023023,-0.00002406,0.00291558
 ,-0.00042874,-0.07141845,0.05284285,0.07443016,-0.00000029,0.00000756,
 -0.00000532,-0.00000282,-0.00000272,-0.00000238,0.00000215,0.00000732,
 -0.00000788,0.00000220,-0.00002418,0.00001222,-0.00000529,0.00001553,-
 0.00000549,0.00000170,0.00000032,0.00000238,-0.00000006,0.00000163,-0.
 00000108,0.00000029,0.00000223,-0.00000012,0.00000037,-0.00000448,-0.0
 0000068,0.00000106,-0.00000056,0.00000445,0.00000074,0.00000182,-0.000
 00308,0.00006072,0.00012441,0.00000133,-0.00002117,-0.00002492,0.00003
 726,0.00003721,-0.00001803,-0.00003602,-0.00001091,0.00005943,-0.00001
 624,-0.00002103,-0.00000241,-0.00001762,0.00001067,0.00000816,-0.00000
 224,-0.00004292,-0.00014542,0.00032895,0.00011555,-0.00015923,-0.00006
 789,0.00001945,0.00019943,-0.00021860,-0.00139485,-0.00239927,-0.00097
 643,0.00106062,0.00147812,0.00184251,0.00362258,0.00137674,0.00144786,
 0.00010157,0.00009428,0.00005762,0.00029768,0.00022585,-0.00023275,-0.
 00008575,-0.00063072,-0.00017860,-0.16553962,0.13543111,0.05927748,0.0
 0310672,0.00079188,0.00598485,-0.00712361,0.01367433,0.00334414,-0.001
 92282,-0.00181996,-0.00210219,0.00001122,-0.00000382,0.00000689,-0.000
 63957,-0.00030324,-0.00047579,0.16878840,-0.00000098,-0.00001061,0.000
 00787,0.00000282,0.00000384,0.00000260,-0.00000473,-0.00001337,0.00001
 082,-0.00001066,0.00003538,-0.00001575,0.00000262,-0.00001973,0.000006
 73,-0.00000393,-0.00000153,-0.00000170,0.00000118,-0.00000148,0.000001
 35,0.00000095,-0.00000318,0.00000051,0.00000161,0.00000556,0.00000216,
 0.00000273,0.00000108,-0.00000395,0.00000060,-0.00000196,0.00000351,-0
 .00006814,-0.00025477,0.00038698,0.00007217,-0.00004461,-0.00006636,-0
 .00000854,-0.00000744,0.00001747,-0.00005723,0.00003745,0.00005843,-0.
 00000689,-0.00004788,0.00001635,-0.00000086,-0.00002033,0.00002694,0.0
 0101781,-0.00046493,-0.00084705,0.00004344,0.00004830,-0.00012652,-0.0
 0029618,0.00014405,0.00024513,-0.00019488,0.00016306,-0.00264526,0.017
 68686,-0.01472458,-0.00861885,0.00076105,-0.00181050,0.00471689,0.0000
 5729,0.00000253,0.00008246,-0.00066592,0.00015556,0.00092834,-0.000746
 30,-0.00023379,0.00067570,0.13525809,-0.19624410,-0.05024357,0.0012827
 9,0.00270895,0.00261529,-0.00362270,0.00669040,0.00234158,-0.00137275,
 -0.00029870,-0.00160097,0.00000863,0.00001822,-0.00001301,-0.00028482,
 -0.00023050,-0.00037740,-0.14865492,0.20423127,-0.00000079,-0.00000242
 ,0.00000037,-0.00000009,-0.00000173,0.00000122,-0.00000071,-0.00000098
 ,0.00000329,0.00000133,-0.00000067,-0.00000611,0.00000113,0.00000086,0
 .00000259,-0.00000005,-0.00000133,-0.00000172,0.00000065,-0.00000065,0
 .00000036,0.00000048,-0.00000106,0.00000016,0.00000095,0.00000085,-0.0
 0000032,0.00000011,0.00000024,-0.00000245,-0.00000005,0.00000036,0.000
 00017,0.00015114,0.00013954,-0.00016650,-0.00004162,0.00006047,-0.0000
 0551,-0.00004037,0.00002833,0.00003276,0.00007785,-0.00009078,-0.00001
 322,-0.00001452,0.00001318,-0.00002749,0.00000366,0.00001497,-0.000004
 22,-0.00056939,0.00064401,0.00035697,-0.00022132,0.00012960,0.00014442
 ,0.00015703,-0.00037179,0.00006278,-0.00266833,0.00014092,-0.00031656,
 -0.01063233,0.01212157,0.00764941,0.00190646,0.00393850,0.00010131,0.0
 0008599,0.00003507,0.00006629,0.00044594,-0.00021382,-0.00015501,-0.00
 007749,0.00051182,-0.00089456,0.05942402,-0.05050139,-0.07430792,0.005
 58884,0.00326498,-0.00140429,0.01666341,-0.01974121,-0.00232344,-0.002
 44044,-0.00103376,-0.00074782,-0.00000207,0.00000235,0.00001710,-0.000
 49228,-0.00035316,-0.00029498,-0.06814862,0.05221593,0.07247026,-0.000
 00136,-0.00000640,0.00000362,0.00000230,-0.00000112,0.00000289,-0.0000
 0379,-0.00000534,0.00000824,-0.00000019,0.00001617,-0.00001268,-0.0000
 0023,-0.00000775,0.00000311,-0.00000031,-0.00000166,0.00000004,0.00000
 067,0.00000033,-0.00000008,0.00000066,-0.00000184,0.00000089,0.0000010
 2,0.00000307,-0.00000004,0.00000067,0.00000171,-0.00000261,0.00000007,
 -0.00000075,-0.00000077,0.00008473,0.00010572,0.00010718,-0.00006859,-
 0.00005635,0.00003397,0.00007107,-0.00001736,-0.00000954,-0.00001407,0
 .00003970,-0.00004044,0.00000605,-0.00000093,0.00000414,-0.00001851,-0
 .00000822,-0.00001389,0.00020886,-0.00005575,-0.00002755,-0.00015788,-
 0.00022248,-0.00022345,0.00001712,0.00012921,0.00000959,-0.00053275,-0
 .00042068,-0.00025973,-0.00036098,0.00029116,-0.00087869,0.00512353,0.
 00321955,0.00226060,0.00005039,0.00002420,0.00005255,0.00004926,0.0000
 1812,-0.00001956,0.00472537,0.00122039,-0.00325185,0.00118246,0.005200
 95,0.00255663,-0.13950577,-0.01231741,0.14031997,-0.00724604,-0.004658
 49,0.01621243,-0.00109857,-0.00108552,-0.00174153,-0.00002314,-0.00000
 014,-0.00000848,-0.00196438,-0.00187822,-0.00206079,-0.00043019,-0.000
 20021,0.00084146,0.13990254,-0.00000002,-0.00000748,0.00000332,0.00000
 095,-0.00000188,0.00000161,0.00000004,-0.00000488,0.00001076,-0.000000
 56,0.00001761,-0.00001537,0.00000290,-0.00000832,0.00000599,-0.0000014
 2,-0.00000065,-0.00000218,0.00000043,-0.00000006,-0.00000012,0.0000000
 8,-0.00000259,0.00000116,0.00000022,0.00000206,-0.00000065,0.,0.000000
 60,-0.00000451,-0.00000002,-0.00000093,0.00000020,0.00010088,-0.000034
 73,0.00007738,0.00003542,0.00002944,-0.00012821,-0.00006050,0.00005609
 ,0.00008219,-0.00006647,-0.00006764,0.00011972,0.00000573,-0.00001639,
 0.00001010,-0.00001084,-0.00004318,0.00002025,-0.00089778,0.00068099,0
 .00073414,-0.00016820,-0.00031648,0.00009959,0.00017901,-0.00022686,0.
 00002762,-0.00026585,0.00010180,-0.00050153,0.00010948,-0.00128488,0.0
 0017807,0.00347376,-0.00267859,0.00442799,0.00002340,0.00002923,0.0000
 2952,-0.00003726,0.00001183,0.00007307,-0.01607873,0.00082970,0.022158
 97,0.00485676,-0.00194766,0.00016622,-0.01190813,-0.05947640,0.0324626
 2,0.01251753,0.00712672,-0.01946331,-0.00160793,0.00012898,-0.00044639
 ,0.00000049,-0.00002142,-0.00000727,-0.00157342,-0.00002632,-0.0015956
 6,0.00069374,0.00018836,-0.00094880,0.01067634,0.05696395,-0.00000039,
 0.00001093,-0.00000768,-0.00000483,-0.00000422,-0.00000087,0.00000154,
 0.00001533,-0.00001522,0.00000251,-0.00003101,0.00002347,-0.00000744,0
 .00001710,-0.00000968,0.00000113,0.00000120,0.00000528,0.00000016,0.00
 000319,-0.00000212,0.00000077,0.00000455,-0.00000035,0.00000220,-0.000
 00590,-0.00000161,0.00000198,0.00000062,0.00000692,0.00000156,0.000001
 70,-0.00000496,0.00011350,0.00008109,0.00002671,-0.00004071,-0.0000116
 3,-0.00000908,0.00002982,0.00001661,-0.00000067,0.00003408,-0.00001166
 ,-0.00006320,-0.00000316,0.00002012,-0.00000383,-0.00001030,0.00001460
 ,-0.00003263,0.00062096,-0.00036209,-0.00036996,-0.00026118,0.00016299
 ,-0.00025229,-0.00002884,0.00009310,0.00006647,-0.00037647,-0.00030363
 ,-0.00026822,-0.00072848,-0.00006281,0.00010790,0.00204194,0.00477638,
 0.00251835,0.00005271,0.00002924,0.00001629,0.00002241,0.00000222,0.00
 001305,0.01009345,0.00002647,-0.01001344,0.00282345,-0.00028996,0.0029
 2058,0.14003772,0.03296944,-0.24149110,0.00293525,0.00252182,-0.003085
 59,-0.00133225,-0.00111335,-0.00054187,-0.00000910,-0.00000898,-0.0000
 1254,-0.00229944,-0.00118431,-0.00083537,0.00015108,0.00019735,-0.0002
 3732,-0.15386562,-0.03757651,0.25155457\\-0.00000181,0.00001982,0.0000
 0952,0.00000330,0.00002271,-0.00001698,0.00002426,-0.00007976,-0.00003
 218,-0.00001194,-0.00001111,0.00003908,-0.00000466,0.00001305,0.000043
 45,-0.00000996,-0.00001070,-0.00001117,-0.00000145,0.00000387,0.000001
 05,-0.00000445,-0.00000595,0.00001346,-0.00000337,0.00002991,0.0000127
 5,0.00000364,-0.00000210,-0.00002477,0.00000337,-0.00001169,0.00000344
 ,0.00001479,-0.00005752,0.00002217,0.00008581,-0.00002051,-0.00011960,
 -0.00006564,0.00005838,0.00005270,0.00002714,0.00000402,-0.00002340,-0
 .00002193,-0.00000099,0.00003674,-0.00000442,-0.00000853,-0.00000266,-
 0.00001677,-0.00006588,0.00008283,0.00001375,-0.00002370,-0.00000121,-
 0.00001209,0.00004972,-0.00002336,-0.00001116,-0.00002791,0.00003333,0
 .00001371,-0.00000150,-0.00001869,-0.00004427,0.00006715,-0.00000179,-
 0.00000213,-0.00000219,-0.00000185,-0.00000271,-0.00000095,-0.00000243
 ,0.00001634,0.00005472,-0.00006219,0.00006064,-0.00001293,-0.00006989,
 0.00007407,-0.00006997,-0.00003780,-0.00007995,0.00006920,0.00004988,0
 .00000573,-0.00001346,0.00000179,-0.00001420,-0.00000116,0.00002787,-0
 .00001294,0.00002725,-0.00000110,-0.00001339,0.00000198,0.00001315,-0.
 00000729,0.00000671,0.00000788\\\@
 The archive entry for this job was punched.


 THE TRULY SUCCESSFUL PERFORMANCE OF RESEARCHES IN
 INORGANIC CHEMISTRY IS POSSIBLE ONLY TO ONE WHO IS NOT
 ONLY A THEORETICAL CHEMIST, BUT ALSO AN ACCOMPLISHED
 ANALYST AND, MOREOVER, NOT MERELY A PRACTICALLY TRAINED,
 MECHANICAL WORKER, BUT A THINKING CREATIVE ARTIST.
   --  CLEMENS WINKLER, BER. 33, 1697(1900)
 Job cpu time:       2 days 18 hours 46 minutes 45.2 seconds.
 Elapsed time:       0 days  2 hours  7 minutes 23.7 seconds.
 File lengths (MBytes):  RWF=   2214 Int=      0 D2E=      0 Chk=     40 Scr=      1
 Normal termination of Gaussian 16 at Wed Nov  8 11:54:49 2023.
