 Entering Gaussian System, Link 0=g16
 Input=ph_2hydropyrenemethyl_3_m062x.com
 Output=ph_2hydropyrenemethyl_3_m062x.log
 Initial command:
 /arc/software/Gaussian/g16.c01/l1.exe "/tmp/slurm/147920/Gau-106141.inp" -scrdir="/tmp/slurm/147920/"
 Entering Link 1 = /arc/software/Gaussian/g16.c01/l1.exe PID=    106142.
  
 Copyright (c) 1988-2019, Gaussian, Inc.  All Rights Reserved.
  
 This is part of the Gaussian(R) 16 program.  It is based on
 the Gaussian(R) 09 system (copyright 2009, Gaussian, Inc.),
 the Gaussian(R) 03 system (copyright 2003, Gaussian, Inc.),
 the Gaussian(R) 98 system (copyright 1998, Gaussian, Inc.),
 the Gaussian(R) 94 system (copyright 1995, Gaussian, Inc.),
 the Gaussian 92(TM) system (copyright 1992, Gaussian, Inc.),
 the Gaussian 90(TM) system (copyright 1990, Gaussian, Inc.),
 the Gaussian 88(TM) system (copyright 1988, Gaussian, Inc.),
 the Gaussian 86(TM) system (copyright 1986, Carnegie Mellon
 University), and the Gaussian 82(TM) system (copyright 1983,
 Carnegie Mellon University). Gaussian is a federally registered
 trademark of Gaussian, Inc.
  
 This software contains proprietary and confidential information,
 including trade secrets, belonging to Gaussian, Inc.
  
 This software is provided under written license and may be
 used, copied, transmitted, or stored only in accord with that
 written license.
  
 The following legend is applicable only to US Government
 contracts under FAR:
  
                    RESTRICTED RIGHTS LEGEND
  
 Use, reproduction and disclosure by the US Government is
 subject to restrictions as set forth in subparagraphs (a)
 and (c) of the Commercial Computer Software - Restricted
 Rights clause in FAR 52.227-19.
  
 Gaussian, Inc.
 340 Quinnipiac St., Bldg. 40, Wallingford CT 06492
  
  
 ---------------------------------------------------------------
 Warning -- This program may not be used in any manner that
 competes with the business of Gaussian, Inc. or will provide
 assistance to any competitor of Gaussian, Inc.  The licensee
 of this program is prohibited from giving any competitor of
 Gaussian, Inc. access to this program.  By using this program,
 the user acknowledges that Gaussian, Inc. is engaged in the
 business of creating and licensing software in the field of
 computational chemistry and represents and warrants to the
 licensee that it is not a competitor of Gaussian, Inc. and that
 it will not use this program in any manner prohibited above.
 ---------------------------------------------------------------
  

 Cite this work as:
 Gaussian 16, Revision C.01,
 M. J. Frisch, G. W. Trucks, H. B. Schlegel, G. E. Scuseria, 
 M. A. Robb, J. R. Cheeseman, G. Scalmani, V. Barone, 
 G. A. Petersson, H. Nakatsuji, X. Li, M. Caricato, A. V. Marenich, 
 J. Bloino, B. G. Janesko, R. Gomperts, B. Mennucci, H. P. Hratchian, 
 J. V. Ortiz, A. F. Izmaylov, J. L. Sonnenberg, D. Williams-Young, 
 F. Ding, F. Lipparini, F. Egidi, J. Goings, B. Peng, A. Petrone, 
 T. Henderson, D. Ranasinghe, V. G. Zakrzewski, J. Gao, N. Rega, 
 G. Zheng, W. Liang, M. Hada, M. Ehara, K. Toyota, R. Fukuda, 
 J. Hasegawa, M. Ishida, T. Nakajima, Y. Honda, O. Kitao, H. Nakai, 
 T. Vreven, K. Throssell, J. A. Montgomery, Jr., J. E. Peralta, 
 F. Ogliaro, M. J. Bearpark, J. J. Heyd, E. N. Brothers, K. N. Kudin, 
 V. N. Staroverov, T. A. Keith, R. Kobayashi, J. Normand, 
 K. Raghavachari, A. P. Rendell, J. C. Burant, S. S. Iyengar, 
 J. Tomasi, M. Cossi, J. M. Millam, M. Klene, C. Adamo, R. Cammi, 
 J. W. Ochterski, R. L. Martin, K. Morokuma, O. Farkas, 
 J. B. Foresman, and D. J. Fox, Gaussian, Inc., Wallingford CT, 2019.
 
 ******************************************
 Gaussian 16:  ES64L-G16RevC.01  3-Jul-2019
                28-Nov-2023 
 ******************************************
 %nprocshared=32
 Will use up to   32 processors via shared memory.
 %mem=8000MB
 %chk=ph_2hydropyrenemethyl_3_m062x.chk
 -----------------------------------------
 # opt freq=noraman m062x def2tzvp pop=nbo
 -----------------------------------------
 1/18=20,19=15,26=3,38=1/1,3;
 2/9=110,12=2,17=6,18=5,40=1/2;
 3/5=44,7=101,11=2,25=1,30=1,71=1,74=-55/1,2,3;
 4//1;
 5/5=2,38=5/2;
 6/7=2,8=2,9=2,10=2,28=1,40=1/1,7;
 7//1,2,3,16;
 1/18=20,19=15,26=3/3(2);
 2/9=110/2;
 99//99;
 2/9=110/2;
 3/5=44,7=101,11=2,25=1,30=1,71=1,74=-55/1,2,3;
 4/5=5,16=3,69=1/1;
 5/5=2,38=5/2;
 7//1,2,3,16;
 1/18=20,19=15,26=3/3(-5);
 2/9=110/2;
 6/7=2,8=2,9=2,10=2,19=2,28=1,40=1/1,7;
 99/9=1/99;
 ----------
 Structure1
 ----------
 Symbolic Z-matrix:
 Charge =  0 Multiplicity = 1
 C                    -0.6874    13.7902  -3.822 
 C                     0.7012    13.7837  -3.6459 
 C                     1.2028    14.0204  -2.3608 
 C                     0.3593    14.2682  -1.2753 
 H                     2.2708    14.038   -2.204 
 C                    -1.5635    14.0142  -2.7574 
 C                    -1.0296    14.2585  -1.4817 
 C                    -3.7186    15.0866  -2.0414 
 C                    -3.0773    13.9992  -2.9301 
 H                    -3.4042    16.073   -2.3856 
 H                    -3.4564    13.0181  -2.6396 
 C                    -1.9545    14.5123  -0.3253 
 C                    -3.2821    14.9141  -0.5807 
 C                    -4.1351    15.1441   0.5108 
 C                    -3.6648    14.9816   1.8132 
 C                    -2.3505    14.5875   2.0602 
 C                    -1.4747    14.3431   0.9901 
 C                    -5.5742    15.5949   0.3074 
 H                    -4.3297    15.164    2.6446 
 C                    -1.9031    14.4088   3.5037 
 C                     0.8926    14.5524   0.1235 
 C                    -0.0206    13.8914   1.1784 
 H                     0.3538    14.1219   2.1748 
 H                     1.9188    14.1994   0.2306 
 H                     0.913     15.6318   0.2814 
 H                     0.0244    12.8064   1.0733 
 H                    -4.8014    15.0505  -2.1519 
 H                    -3.3538    14.1464  -3.9746 
 H                    -6.1569    14.8013  -0.1608 
 H                    -6.0578    15.8761   1.2435 
 H                    -5.6066    16.4656  -0.348 
 H                    -2.7317    14.4877   4.2083 
 H                    -1.4552    13.4241   3.6396 
 H                    -1.1533    15.1565   3.763 
 H                    -1.0981    13.5923  -4.8006 
 C                     3.3431    13.0588  -6.9493 
 C                     2.1926    13.8194  -7.1383 
 C                     1.3365    14.0525  -6.0647 
 C                     1.6202    13.5315  -4.795 
 C                     2.7839    12.7692  -4.6255 
 C                     3.6426    12.5318  -5.6961 
 H                     4.0084    12.8763  -7.7811 
 H                     1.9659    14.2297  -8.1117 
 H                     0.4537    14.6552  -6.2193 
 H                     3.0187    12.3441  -3.6608 
 H                     4.5347    11.9389  -5.5546 
 

 GradGradGradGradGradGradGradGradGradGradGradGradGradGradGradGradGradGrad
 Berny optimization.
 Initialization pass.
                           ----------------------------
                           !    Initial Parameters    !
                           ! (Angstroms and Degrees)  !
 --------------------------                            --------------------------
 ! Name  Definition              Value          Derivative Info.                !
 --------------------------------------------------------------------------------
 ! R1    R(1,2)                  1.3997         estimate D2E/DX2                !
 ! R2    R(1,6)                  1.3968         estimate D2E/DX2                !
 ! R3    R(1,35)                 1.0796         estimate D2E/DX2                !
 ! R4    R(2,3)                  1.3997         estimate D2E/DX2                !
 ! R5    R(2,39)                 1.4928         estimate D2E/DX2                !
 ! R6    R(3,4)                  1.3969         estimate D2E/DX2                !
 ! R7    R(3,5)                  1.0796         estimate D2E/DX2                !
 ! R8    R(4,7)                  1.4042         estimate D2E/DX2                !
 ! R9    R(4,21)                 1.5238         estimate D2E/DX2                !
 ! R10   R(6,7)                  1.4043         estimate D2E/DX2                !
 ! R11   R(6,9)                  1.5237         estimate D2E/DX2                !
 ! R12   R(7,12)                 1.5024         estimate D2E/DX2                !
 ! R13   R(8,9)                  1.5439         estimate D2E/DX2                !
 ! R14   R(8,10)                 1.091          estimate D2E/DX2                !
 ! R15   R(8,13)                 1.5343         estimate D2E/DX2                !
 ! R16   R(8,27)                 1.089          estimate D2E/DX2                !
 ! R17   R(9,11)                 1.0912         estimate D2E/DX2                !
 ! R18   R(9,28)                 1.0905         estimate D2E/DX2                !
 ! R19   R(12,13)                1.4104         estimate D2E/DX2                !
 ! R20   R(12,17)                1.4104         estimate D2E/DX2                !
 ! R21   R(13,14)                1.4042         estimate D2E/DX2                !
 ! R22   R(14,15)                1.3942         estimate D2E/DX2                !
 ! R23   R(14,18)                1.5217         estimate D2E/DX2                !
 ! R24   R(15,16)                1.3942         estimate D2E/DX2                !
 ! R25   R(15,19)                1.0801         estimate D2E/DX2                !
 ! R26   R(16,17)                1.4042         estimate D2E/DX2                !
 ! R27   R(16,20)                1.5218         estimate D2E/DX2                !
 ! R28   R(17,22)                1.5342         estimate D2E/DX2                !
 ! R29   R(18,29)                1.0902         estimate D2E/DX2                !
 ! R30   R(18,30)                1.0905         estimate D2E/DX2                !
 ! R31   R(18,31)                1.0903         estimate D2E/DX2                !
 ! R32   R(20,32)                1.0905         estimate D2E/DX2                !
 ! R33   R(20,33)                1.0903         estimate D2E/DX2                !
 ! R34   R(20,34)                1.0902         estimate D2E/DX2                !
 ! R35   R(21,22)                1.5439         estimate D2E/DX2                !
 ! R36   R(21,24)                1.0905         estimate D2E/DX2                !
 ! R37   R(21,25)                1.0911         estimate D2E/DX2                !
 ! R38   R(22,23)                1.0891         estimate D2E/DX2                !
 ! R39   R(22,26)                1.091          estimate D2E/DX2                !
 ! R40   R(36,37)                1.3921         estimate D2E/DX2                !
 ! R41   R(36,41)                1.3921         estimate D2E/DX2                !
 ! R42   R(36,42)                1.0807         estimate D2E/DX2                !
 ! R43   R(37,38)                1.3928         estimate D2E/DX2                !
 ! R44   R(37,43)                1.0804         estimate D2E/DX2                !
 ! R45   R(38,39)                1.4015         estimate D2E/DX2                !
 ! R46   R(38,44)                1.08           estimate D2E/DX2                !
 ! R47   R(39,40)                1.4014         estimate D2E/DX2                !
 ! R48   R(40,41)                1.3928         estimate D2E/DX2                !
 ! R49   R(40,45)                1.08           estimate D2E/DX2                !
 ! R50   R(41,46)                1.0805         estimate D2E/DX2                !
 ! A1    A(2,1,6)              121.8083         estimate D2E/DX2                !
 ! A2    A(2,1,35)             119.3793         estimate D2E/DX2                !
 ! A3    A(6,1,35)             118.7939         estimate D2E/DX2                !
 ! A4    A(1,2,3)              118.0499         estimate D2E/DX2                !
 ! A5    A(1,2,39)             120.9739         estimate D2E/DX2                !
 ! A6    A(3,2,39)             120.9762         estimate D2E/DX2                !
 ! A7    A(2,3,4)              121.8086         estimate D2E/DX2                !
 ! A8    A(2,3,5)              119.3817         estimate D2E/DX2                !
 ! A9    A(4,3,5)              118.7908         estimate D2E/DX2                !
 ! A10   A(3,4,7)              118.8051         estimate D2E/DX2                !
 ! A11   A(3,4,21)             122.3521         estimate D2E/DX2                !
 ! A12   A(7,4,21)             118.8426         estimate D2E/DX2                !
 ! A13   A(1,6,7)              118.8026         estimate D2E/DX2                !
 ! A14   A(1,6,9)              122.3558         estimate D2E/DX2                !
 ! A15   A(7,6,9)              118.8414         estimate D2E/DX2                !
 ! A16   A(4,7,6)              120.7151         estimate D2E/DX2                !
 ! A17   A(4,7,12)             119.6446         estimate D2E/DX2                !
 ! A18   A(6,7,12)             119.6403         estimate D2E/DX2                !
 ! A19   A(9,8,10)             109.6026         estimate D2E/DX2                !
 ! A20   A(9,8,13)             110.5283         estimate D2E/DX2                !
 ! A21   A(9,8,27)             109.3452         estimate D2E/DX2                !
 ! A22   A(10,8,13)            108.6646         estimate D2E/DX2                !
 ! A23   A(10,8,27)            106.5281         estimate D2E/DX2                !
 ! A24   A(13,8,27)            112.0709         estimate D2E/DX2                !
 ! A25   A(6,9,8)              109.9081         estimate D2E/DX2                !
 ! A26   A(6,9,11)             108.8956         estimate D2E/DX2                !
 ! A27   A(6,9,28)             111.0482         estimate D2E/DX2                !
 ! A28   A(8,9,11)             109.6165         estimate D2E/DX2                !
 ! A29   A(8,9,28)             110.5467         estimate D2E/DX2                !
 ! A30   A(11,9,28)            106.7553         estimate D2E/DX2                !
 ! A31   A(7,12,13)            119.2245         estimate D2E/DX2                !
 ! A32   A(7,12,17)            119.2217         estimate D2E/DX2                !
 ! A33   A(13,12,17)           121.5537         estimate D2E/DX2                !
 ! A34   A(8,13,12)            118.1796         estimate D2E/DX2                !
 ! A35   A(8,13,14)            123.2841         estimate D2E/DX2                !
 ! A36   A(12,13,14)           118.5351         estimate D2E/DX2                !
 ! A37   A(13,14,15)           120.1395         estimate D2E/DX2                !
 ! A38   A(13,14,18)           121.2716         estimate D2E/DX2                !
 ! A39   A(15,14,18)           118.5811         estimate D2E/DX2                !
 ! A40   A(14,15,16)           121.094          estimate D2E/DX2                !
 ! A41   A(14,15,19)           119.4539         estimate D2E/DX2                !
 ! A42   A(16,15,19)           119.452          estimate D2E/DX2                !
 ! A43   A(15,16,17)           120.142          estimate D2E/DX2                !
 ! A44   A(15,16,20)           118.5813         estimate D2E/DX2                !
 ! A45   A(17,16,20)           121.2689         estimate D2E/DX2                !
 ! A46   A(12,17,16)           118.5345         estimate D2E/DX2                !
 ! A47   A(12,17,22)           118.1782         estimate D2E/DX2                !
 ! A48   A(16,17,22)           123.2861         estimate D2E/DX2                !
 ! A49   A(14,18,29)           110.3177         estimate D2E/DX2                !
 ! A50   A(14,18,30)           112.3979         estimate D2E/DX2                !
 ! A51   A(14,18,31)           110.184          estimate D2E/DX2                !
 ! A52   A(29,18,30)           108.6225         estimate D2E/DX2                !
 ! A53   A(29,18,31)           107.8957         estimate D2E/DX2                !
 ! A54   A(30,18,31)           107.2717         estimate D2E/DX2                !
 ! A55   A(16,20,32)           112.3952         estimate D2E/DX2                !
 ! A56   A(16,20,33)           110.1861         estimate D2E/DX2                !
 ! A57   A(16,20,34)           110.3213         estimate D2E/DX2                !
 ! A58   A(32,20,33)           107.2743         estimate D2E/DX2                !
 ! A59   A(32,20,34)           108.6195         estimate D2E/DX2                !
 ! A60   A(33,20,34)           107.8929         estimate D2E/DX2                !
 ! A61   A(4,21,22)            109.8993         estimate D2E/DX2                !
 ! A62   A(4,21,24)            111.0475         estimate D2E/DX2                !
 ! A63   A(4,21,25)            108.8997         estimate D2E/DX2                !
 ! A64   A(22,21,24)           110.5435         estimate D2E/DX2                !
 ! A65   A(22,21,25)           109.6168         estimate D2E/DX2                !
 ! A66   A(24,21,25)           106.7643         estimate D2E/DX2                !
 ! A67   A(17,22,21)           110.529          estimate D2E/DX2                !
 ! A68   A(17,22,23)           112.0732         estimate D2E/DX2                !
 ! A69   A(17,22,26)           108.6666         estimate D2E/DX2                !
 ! A70   A(21,22,23)           109.3394         estimate D2E/DX2                !
 ! A71   A(21,22,26)           109.6065         estimate D2E/DX2                !
 ! A72   A(23,22,26)           106.525          estimate D2E/DX2                !
 ! A73   A(37,36,41)           120.4554         estimate D2E/DX2                !
 ! A74   A(37,36,42)           119.7736         estimate D2E/DX2                !
 ! A75   A(41,36,42)           119.7709         estimate D2E/DX2                !
 ! A76   A(36,37,38)           119.6557         estimate D2E/DX2                !
 ! A77   A(36,37,43)           120.2145         estimate D2E/DX2                !
 ! A78   A(38,37,43)           120.1296         estimate D2E/DX2                !
 ! A79   A(37,38,39)           120.7781         estimate D2E/DX2                !
 ! A80   A(37,38,44)           119.0433         estimate D2E/DX2                !
 ! A81   A(39,38,44)           120.1724         estimate D2E/DX2                !
 ! A82   A(2,39,38)            120.6606         estimate D2E/DX2                !
 ! A83   A(2,39,40)            120.6616         estimate D2E/DX2                !
 ! A84   A(38,39,40)           118.6778         estimate D2E/DX2                !
 ! A85   A(39,40,41)           120.7761         estimate D2E/DX2                !
 ! A86   A(39,40,45)           120.1751         estimate D2E/DX2                !
 ! A87   A(41,40,45)           119.0424         estimate D2E/DX2                !
 ! A88   A(36,41,40)           119.6568         estimate D2E/DX2                !
 ! A89   A(36,41,46)           120.2165         estimate D2E/DX2                !
 ! A90   A(40,41,46)           120.1265         estimate D2E/DX2                !
 ! D1    D(6,1,2,3)             -0.4825         estimate D2E/DX2                !
 ! D2    D(6,1,2,39)           179.5084         estimate D2E/DX2                !
 ! D3    D(35,1,2,3)          -178.8946         estimate D2E/DX2                !
 ! D4    D(35,1,2,39)            1.0963         estimate D2E/DX2                !
 ! D5    D(2,1,6,7)              0.9544         estimate D2E/DX2                !
 ! D6    D(2,1,6,9)           -178.8762         estimate D2E/DX2                !
 ! D7    D(35,1,6,7)           179.3755         estimate D2E/DX2                !
 ! D8    D(35,1,6,9)            -0.4551         estimate D2E/DX2                !
 ! D9    D(1,2,3,4)             -0.4963         estimate D2E/DX2                !
 ! D10   D(1,2,3,5)           -178.8994         estimate D2E/DX2                !
 ! D11   D(39,2,3,4)           179.5128         estimate D2E/DX2                !
 ! D12   D(39,2,3,5)             1.1097         estimate D2E/DX2                !
 ! D13   D(1,2,39,38)           38.2784         estimate D2E/DX2                !
 ! D14   D(1,2,39,40)         -141.7308         estimate D2E/DX2                !
 ! D15   D(3,2,39,38)         -141.731          estimate D2E/DX2                !
 ! D16   D(3,2,39,40)           38.2598         estimate D2E/DX2                !
 ! D17   D(2,3,4,7)              0.9631         estimate D2E/DX2                !
 ! D18   D(2,3,4,21)          -178.8622         estimate D2E/DX2                !
 ! D19   D(5,3,4,7)            179.3753         estimate D2E/DX2                !
 ! D20   D(5,3,4,21)            -0.45           estimate D2E/DX2                !
 ! D21   D(3,4,7,6)             -0.4682         estimate D2E/DX2                !
 ! D22   D(3,4,7,12)           179.5354         estimate D2E/DX2                !
 ! D23   D(21,4,7,6)           179.3633         estimate D2E/DX2                !
 ! D24   D(21,4,7,12)           -0.6331         estimate D2E/DX2                !
 ! D25   D(3,4,21,22)         -142.4834         estimate D2E/DX2                !
 ! D26   D(3,4,21,24)          -19.8559         estimate D2E/DX2                !
 ! D27   D(3,4,21,25)           97.429          estimate D2E/DX2                !
 ! D28   D(7,4,21,22)           37.6914         estimate D2E/DX2                !
 ! D29   D(7,4,21,24)          160.3189         estimate D2E/DX2                !
 ! D30   D(7,4,21,25)          -82.3963         estimate D2E/DX2                !
 ! D31   D(1,6,7,4)             -0.4651         estimate D2E/DX2                !
 ! D32   D(1,6,7,12)           179.5312         estimate D2E/DX2                !
 ! D33   D(9,6,7,4)            179.3715         estimate D2E/DX2                !
 ! D34   D(9,6,7,12)            -0.6321         estimate D2E/DX2                !
 ! D35   D(1,6,9,8)           -142.4825         estimate D2E/DX2                !
 ! D36   D(1,6,9,11)            97.4274         estimate D2E/DX2                !
 ! D37   D(1,6,9,28)           -19.8444         estimate D2E/DX2                !
 ! D38   D(7,6,9,8)             37.6869         estimate D2E/DX2                !
 ! D39   D(7,6,9,11)           -82.4032         estimate D2E/DX2                !
 ! D40   D(7,6,9,28)           160.3251         estimate D2E/DX2                !
 ! D41   D(4,7,12,13)          160.3279         estimate D2E/DX2                !
 ! D42   D(4,7,12,17)          -19.674          estimate D2E/DX2                !
 ! D43   D(6,7,12,13)          -19.6685         estimate D2E/DX2                !
 ! D44   D(6,7,12,17)          160.3296         estimate D2E/DX2                !
 ! D45   D(10,8,9,6)            65.0462         estimate D2E/DX2                !
 ! D46   D(10,8,9,11)         -175.3022         estimate D2E/DX2                !
 ! D47   D(10,8,9,28)          -57.8877         estimate D2E/DX2                !
 ! D48   D(13,8,9,6)           -54.6966         estimate D2E/DX2                !
 ! D49   D(13,8,9,11)           64.955          estimate D2E/DX2                !
 ! D50   D(13,8,9,28)         -177.6305         estimate D2E/DX2                !
 ! D51   D(27,8,9,6)          -178.5246         estimate D2E/DX2                !
 ! D52   D(27,8,9,11)          -58.8731         estimate D2E/DX2                !
 ! D53   D(27,8,9,28)           58.5414         estimate D2E/DX2                !
 ! D54   D(9,8,13,12)           37.7148         estimate D2E/DX2                !
 ! D55   D(9,8,13,14)         -142.6911         estimate D2E/DX2                !
 ! D56   D(10,8,13,12)         -82.5911         estimate D2E/DX2                !
 ! D57   D(10,8,13,14)          97.003          estimate D2E/DX2                !
 ! D58   D(27,8,13,12)         159.9581         estimate D2E/DX2                !
 ! D59   D(27,8,13,14)         -20.4477         estimate D2E/DX2                !
 ! D60   D(7,12,13,8)           -0.5455         estimate D2E/DX2                !
 ! D61   D(7,12,13,14)         179.8407         estimate D2E/DX2                !
 ! D62   D(17,12,13,8)         179.4565         estimate D2E/DX2                !
 ! D63   D(17,12,13,14)         -0.1573         estimate D2E/DX2                !
 ! D64   D(7,12,17,16)         179.8405         estimate D2E/DX2                !
 ! D65   D(7,12,17,22)          -0.5422         estimate D2E/DX2                !
 ! D66   D(13,12,17,16)         -0.1615         estimate D2E/DX2                !
 ! D67   D(13,12,17,22)        179.4558         estimate D2E/DX2                !
 ! D68   D(8,13,14,15)        -179.2733         estimate D2E/DX2                !
 ! D69   D(8,13,14,18)          -0.3061         estimate D2E/DX2                !
 ! D70   D(12,13,14,15)          0.3196         estimate D2E/DX2                !
 ! D71   D(12,13,14,18)        179.2867         estimate D2E/DX2                !
 ! D72   D(13,14,15,16)         -0.1642         estimate D2E/DX2                !
 ! D73   D(13,14,15,19)        179.839          estimate D2E/DX2                !
 ! D74   D(18,14,15,16)       -179.1588         estimate D2E/DX2                !
 ! D75   D(18,14,15,19)          0.8443         estimate D2E/DX2                !
 ! D76   D(13,14,18,29)         67.3544         estimate D2E/DX2                !
 ! D77   D(13,14,18,30)       -171.2531         estimate D2E/DX2                !
 ! D78   D(13,14,18,31)        -51.6727         estimate D2E/DX2                !
 ! D79   D(15,14,18,29)       -113.6628         estimate D2E/DX2                !
 ! D80   D(15,14,18,30)          7.7297         estimate D2E/DX2                !
 ! D81   D(15,14,18,31)        127.3101         estimate D2E/DX2                !
 ! D82   D(14,15,16,17)         -0.1642         estimate D2E/DX2                !
 ! D83   D(14,15,16,20)       -179.1576         estimate D2E/DX2                !
 ! D84   D(19,15,16,17)        179.8326         estimate D2E/DX2                !
 ! D85   D(19,15,16,20)          0.8392         estimate D2E/DX2                !
 ! D86   D(15,16,17,12)          0.3216         estimate D2E/DX2                !
 ! D87   D(15,16,17,22)       -179.2749         estimate D2E/DX2                !
 ! D88   D(20,16,17,12)        179.2875         estimate D2E/DX2                !
 ! D89   D(20,16,17,22)         -0.309          estimate D2E/DX2                !
 ! D90   D(15,16,20,32)          7.7274         estimate D2E/DX2                !
 ! D91   D(15,16,20,33)        127.3107         estimate D2E/DX2                !
 ! D92   D(15,16,20,34)       -113.662          estimate D2E/DX2                !
 ! D93   D(17,16,20,32)       -171.2542         estimate D2E/DX2                !
 ! D94   D(17,16,20,33)        -51.6709         estimate D2E/DX2                !
 ! D95   D(17,16,20,34)         67.3564         estimate D2E/DX2                !
 ! D96   D(12,17,22,21)         37.7181         estimate D2E/DX2                !
 ! D97   D(12,17,22,23)        159.9563         estimate D2E/DX2                !
 ! D98   D(12,17,22,26)        -82.5942         estimate D2E/DX2                !
 ! D99   D(16,17,22,21)       -142.684          estimate D2E/DX2                !
 ! D100  D(16,17,22,23)        -20.4459         estimate D2E/DX2                !
 ! D101  D(16,17,22,26)         97.0037         estimate D2E/DX2                !
 ! D102  D(4,21,22,17)         -54.7019         estimate D2E/DX2                !
 ! D103  D(4,21,22,23)        -178.5295         estimate D2E/DX2                !
 ! D104  D(4,21,22,26)          65.0462         estimate D2E/DX2                !
 ! D105  D(24,21,22,17)       -177.6267         estimate D2E/DX2                !
 ! D106  D(24,21,22,23)         58.5458         estimate D2E/DX2                !
 ! D107  D(24,21,22,26)        -57.8786         estimate D2E/DX2                !
 ! D108  D(25,21,22,17)         64.9495         estimate D2E/DX2                !
 ! D109  D(25,21,22,23)        -58.8781         estimate D2E/DX2                !
 ! D110  D(25,21,22,26)       -175.3024         estimate D2E/DX2                !
 ! D111  D(41,36,37,38)         -0.0422         estimate D2E/DX2                !
 ! D112  D(41,36,37,43)        179.765          estimate D2E/DX2                !
 ! D113  D(42,36,37,38)        179.9666         estimate D2E/DX2                !
 ! D114  D(42,36,37,43)         -0.2262         estimate D2E/DX2                !
 ! D115  D(37,36,41,40)         -0.0316         estimate D2E/DX2                !
 ! D116  D(37,36,41,46)        179.7705         estimate D2E/DX2                !
 ! D117  D(42,36,41,40)        179.9597         estimate D2E/DX2                !
 ! D118  D(42,36,41,46)         -0.2383         estimate D2E/DX2                !
 ! D119  D(36,37,38,39)          0.0732         estimate D2E/DX2                !
 ! D120  D(36,37,38,44)        179.1723         estimate D2E/DX2                !
 ! D121  D(43,37,38,39)       -179.7342         estimate D2E/DX2                !
 ! D122  D(43,37,38,44)         -0.6351         estimate D2E/DX2                !
 ! D123  D(37,38,39,2)         179.9611         estimate D2E/DX2                !
 ! D124  D(37,38,39,40)         -0.0298         estimate D2E/DX2                !
 ! D125  D(44,38,39,2)           0.8722         estimate D2E/DX2                !
 ! D126  D(44,38,39,40)       -179.1188         estimate D2E/DX2                !
 ! D127  D(2,39,40,41)         179.9642         estimate D2E/DX2                !
 ! D128  D(2,39,40,45)           0.8952         estimate D2E/DX2                !
 ! D129  D(38,39,40,41)         -0.0449         estimate D2E/DX2                !
 ! D130  D(38,39,40,45)       -179.1138         estimate D2E/DX2                !
 ! D131  D(39,40,41,36)          0.0756         estimate D2E/DX2                !
 ! D132  D(39,40,41,46)       -179.7267         estimate D2E/DX2                !
 ! D133  D(45,40,41,36)        179.1549         estimate D2E/DX2                !
 ! D134  D(45,40,41,46)         -0.6474         estimate D2E/DX2                !
 --------------------------------------------------------------------------------
 Trust Radius=3.00D-01 FncErr=1.00D-07 GrdErr=1.00D-06 EigMax=2.50D+02 EigMin=1.00D-04
 Number of steps in this run=    276 maximum allowed number of steps=    276.
 GradGradGradGradGradGradGradGradGradGradGradGradGradGradGradGradGradGrad

                          Input orientation:                          
 ---------------------------------------------------------------------
 Center     Atomic      Atomic             Coordinates (Angstroms)
 Number     Number       Type             X           Y           Z
 ---------------------------------------------------------------------
      1          6           0       -0.687400   13.790200   -3.822000
      2          6           0        0.701200   13.783700   -3.645900
      3          6           0        1.202800   14.020400   -2.360800
      4          6           0        0.359300   14.268200   -1.275300
      5          1           0        2.270800   14.038000   -2.204000
      6          6           0       -1.563500   14.014200   -2.757400
      7          6           0       -1.029600   14.258500   -1.481700
      8          6           0       -3.718600   15.086600   -2.041400
      9          6           0       -3.077300   13.999200   -2.930100
     10          1           0       -3.404200   16.073000   -2.385600
     11          1           0       -3.456400   13.018100   -2.639600
     12          6           0       -1.954500   14.512300   -0.325300
     13          6           0       -3.282100   14.914100   -0.580700
     14          6           0       -4.135100   15.144100    0.510800
     15          6           0       -3.664800   14.981600    1.813200
     16          6           0       -2.350500   14.587500    2.060200
     17          6           0       -1.474700   14.343100    0.990100
     18          6           0       -5.574200   15.594900    0.307400
     19          1           0       -4.329700   15.164000    2.644600
     20          6           0       -1.903100   14.408800    3.503700
     21          6           0        0.892600   14.552400    0.123500
     22          6           0       -0.020600   13.891400    1.178400
     23          1           0        0.353800   14.121900    2.174800
     24          1           0        1.918800   14.199400    0.230600
     25          1           0        0.913000   15.631800    0.281400
     26          1           0        0.024400   12.806400    1.073300
     27          1           0       -4.801400   15.050500   -2.151900
     28          1           0       -3.353800   14.146400   -3.974600
     29          1           0       -6.156900   14.801300   -0.160800
     30          1           0       -6.057800   15.876100    1.243500
     31          1           0       -5.606600   16.465600   -0.348000
     32          1           0       -2.731700   14.487700    4.208300
     33          1           0       -1.455200   13.424100    3.639600
     34          1           0       -1.153300   15.156500    3.763000
     35          1           0       -1.098100   13.592300   -4.800600
     36          6           0        3.343100   13.058800   -6.949300
     37          6           0        2.192600   13.819400   -7.138300
     38          6           0        1.336500   14.052500   -6.064700
     39          6           0        1.620200   13.531500   -4.795000
     40          6           0        2.783900   12.769200   -4.625500
     41          6           0        3.642600   12.531800   -5.696100
     42          1           0        4.008400   12.876300   -7.781100
     43          1           0        1.965900   14.229700   -8.111700
     44          1           0        0.453700   14.655200   -6.219300
     45          1           0        3.018700   12.344100   -3.660800
     46          1           0        4.534700   11.938900   -5.554600
 ---------------------------------------------------------------------
                    Distance matrix (angstroms):
                    1          2          3          4          5
     1  C    0.000000
     2  C    1.399737   0.000000
     3  C    2.400199   1.399683   0.000000
     4  C    2.794592   2.443641   1.396856   0.000000
     5  H    3.380869   2.146483   1.079593   2.137594   0.000000
     6  C    1.396818   2.443651   2.794592   2.440962   3.874103
     7  C    2.411101   2.811559   2.411041   1.404186   3.385702
     8  C    3.746914   4.879201   5.045689   4.229179   6.082673
     9  C    2.559451   3.851736   4.317848   3.823734   5.397305
    10  H    3.828240   4.866576   5.043633   4.319028   6.031569
    11  H    3.108306   4.345621   4.773938   4.240711   5.833589
    12  C    3.788652   4.313929   3.788637   2.513117   4.648401
    13  C    4.301354   5.151692   4.907319   3.762904   5.851269
    14  C    5.700249   6.520632   6.164573   4.914976   7.044796
    15  C    6.483812   7.092157   6.483804   5.122612   7.229082
    16  C    6.164565   6.520625   5.700244   4.309354   6.312033
    17  C    4.907326   5.151695   4.301357   2.915682   4.931950
    18  C    6.647533   7.634767   7.451582   6.282634   8.383024
    19  H    7.547887   8.172244   7.547874   6.176957   8.267007
    20  C    7.451609   7.634783   6.647543   5.289335   7.080733
    21  C    4.317907   3.851741   2.559491   1.523752   2.753416
    22  C    5.045678   4.879187   3.746903   2.511363   4.088109
    23  H    6.095550   5.840857   4.615492   3.453205   4.780776
    24  H    4.835627   4.084435   2.694448   2.168988   2.465204
    25  H    4.773957   4.345575   3.108346   2.142266   3.249774
    26  H    5.043658   4.866623   3.828246   2.786564   4.159789
    27  H    4.615472   5.840841   6.095503   5.292754   7.144500
    28  H    2.694412   4.084436   4.835580   4.592185   5.897703
    29  H    6.658989   7.759830   7.721074   6.632282   8.705367
    30  H    7.671471   8.600491   8.315703   7.078762   9.199426
    31  H    6.589762   7.606384   7.509880   6.424984   8.449344
    32  H    8.315731   8.600516   7.671488   6.298597   8.145233
    33  H    7.509928   7.606437   6.589790   5.306709   6.957558
    34  H    7.721144   7.759868   6.659043   5.334932   6.969978
    35  H    1.079582   2.146496   3.380833   3.874093   4.276736
    36  C    5.153628   4.291569   5.153629   6.523802   4.962513
    37  C    4.392391   3.797684   4.883094   6.159316   4.939759
    38  C    3.032272   2.515244   3.706451   4.892831   3.972170
    39  C    2.517672   1.492849   2.517653   3.810628   2.719026
    40  C    3.706478   2.515247   3.032201   4.398810   2.781508
    41  C    4.883106   3.797685   4.392355   5.773960   4.042924
    42  H    6.209688   5.372227   6.209671   7.588066   5.955908
    43  H    5.063071   4.662805   5.805082   7.022750   5.918668
    44  H    2.792379   2.728215   3.981475   4.960022   4.450328
    45  H    3.981503   2.728274   2.792396   4.057731   2.356039
    46  H    5.805131   4.662847   5.063058   6.416542   4.556093
                    6          7          8          9         10
     6  C    0.000000
     7  C    1.404330   0.000000
     8  C    2.511405   2.868751   0.000000
     9  C    1.523693   2.521542   1.543856   0.000000
    10  H    2.786587   3.122206   1.091011   2.168868   0.000000
    11  H    2.142233   2.961196   2.169167   1.091176   3.065886
    12  C    2.513184   1.502370   2.527225   2.882522   2.963486
    13  C    2.915721   2.513040   1.534253   2.529558   2.148400
    14  C    4.309400   3.794532   2.586601   3.777503   3.128291
    15  C    5.122666   4.280598   3.856405   4.879463   4.346146
    16  C    4.915009   3.794479   4.352461   5.077148   4.804387
    17  C    3.762953   2.512980   3.844200   4.249066   4.255687
    18  C    5.289360   5.063619   3.036195   4.388869   3.491379
    19  H    6.177014   5.360685   4.726313   5.831170   5.194780
    20  C    6.282707   5.063576   5.873975   6.552885   6.301327
    21  C    3.823829   2.521487   5.122043   5.038910   5.202912
    22  C    4.229201   2.868619   5.046862   5.121993   5.376823
    23  H    5.292848   3.911834   5.940659   6.152033   6.223070
    24  H    4.592260   3.410063   6.142425   5.915329   6.220065
    25  H    4.240753   2.961109   5.210025   5.376022   5.093698
    26  H    4.319082   3.122104   5.376869   5.202934   5.864296
    27  H    3.453193   3.911893   1.089022   2.164104   1.747080
    28  H    2.168923   3.410135   2.180440   1.090459   2.497849
    29  H    5.334902   5.322463   3.092468   4.218569   3.760893
    30  H    6.298619   5.943580   4.109226   5.461233   4.500081
    31  H    5.306715   5.206294   2.886830   4.375812   3.025973
    32  H    7.078833   5.943549   6.355423   7.163437   6.815053
    33  H    6.425072   5.206253   6.337243   6.791385   6.864278
    34  H    6.632400   5.322460   6.346393   7.059653   6.611490
    35  H    2.137583   3.385796   4.088170   2.753465   4.159831
    36  C    6.523767   7.103129   8.835557   7.632814   8.685552
    37  C    5.773952   6.524761   7.907368   6.746341   7.680563
    38  C    4.398829   5.161856   6.542961   5.413888   6.331859
    39  C    3.810611   4.304408   6.205114   5.075737   6.124461
    40  C    4.892822   5.161809   7.370917   6.224223   7.363751
    41  C    6.159297   6.524731   8.606457   7.413574   8.553181
    42  H    7.588046   8.183786   9.876037   8.660268   9.709632
    43  H    6.416513   7.275352   8.360404   7.234361   8.063743
    44  H    4.057675   4.980201   5.920223   4.870024   5.620570
    45  H    4.960033   4.980174   7.452179   6.358812   7.535547
    46  H    7.022766   7.275335   9.506185   8.311160   9.495234
                   11         12         13         14         15
    11  H    0.000000
    12  C    3.137566   0.000000
    13  C    2.804330   1.410388   0.000000
    14  C    3.860768   2.419349   1.404237   0.000000
    15  C    4.870954   2.778228   2.425237   1.394215   0.000000
    16  C    5.076825   2.419314   2.819379   2.428012   1.394169
    17  C    4.342520   1.410359   2.461737   2.819407   2.425224
    18  C    4.450818   3.830739   2.550673   1.521710   2.507863
    19  H    5.769776   3.858315   3.400364   2.142748   1.080087
    20  C    6.487443   3.830743   4.340425   3.805252   2.507883
    21  C    5.376114   2.882535   4.249099   5.077192   4.879467
    22  C    5.210038   2.527172   3.844181   4.352477   3.856384
    23  H    6.238144   3.425078   4.630349   4.895305   4.125407
    24  H    6.206955   3.925479   5.312096   6.133570   5.856027
    25  H    5.869866   3.137502   4.342485   5.076789   4.870875
    26  H    5.093762   2.963481   4.255709   4.804445   4.346164
    27  H    2.485463   3.425050   2.189874   2.746395   4.125364
    28  H    1.750946   3.925470   3.480382   4.660971   5.856015
    29  H    4.076390   4.215536   2.907493   2.157831   3.184297
    30  H    5.478495   4.599799   3.457985   2.183907   2.617468
    31  H    4.664767   4.141706   2.804390   2.156203   3.262457
    32  H    7.041211   4.599802   4.839347   4.008977   2.617464
    33  H    6.602877   4.141728   4.834108   4.464264   3.262495
    34  H    7.132343   4.215580   4.843375   4.412266   3.184328
    35  H    3.249801   4.648455   4.931994   6.312085   7.229139
    36  C    8.050365   8.605498   9.375206  10.766849  11.383726
    37  C    7.265782   8.005968   8.612365  10.015156  10.760539
    38  C    5.981069   6.631954   7.221363   8.623642   9.377502
    39  C    5.539061   5.806778   6.610934   7.992213   8.585006
    40  C    6.553403   6.631934   7.599826   8.938361   9.377489
    41  C    7.744319   8.005960   8.932757  10.287970  10.760539
    42  H    9.065229   9.686156  10.447477  11.841246  12.464384
    43  H    7.798281   8.722237   9.204666  10.602162  11.435636
    44  H    5.548264   6.368601   6.768829   8.160291   9.032698
    45  H    6.589692   6.368624   7.469404   8.741802   9.032732
    46  H    8.574356   8.722252   9.731077  11.055669  11.435659
                   16         17         18         19         20
    16  C    0.000000
    17  C    1.404233   0.000000
    18  C    3.805181   4.340390   0.000000
    19  H    2.142687   3.400334   2.682715   0.000000
    20  C    1.521773   2.550692   5.010004   2.682679   0.000000
    21  C    3.777530   2.529607   6.552872   5.831159   4.388885
    22  C    2.586612   1.534241   5.873928   4.726267   3.036203
    23  H    2.746480   2.189944   6.387339   4.820981   2.634746
    24  H    4.661006   3.480421   7.622229   6.767688   5.036264
    25  H    3.860716   2.804303   6.487357   5.769701   4.450771
    26  H    3.128328   2.148411   6.301322   5.194752   3.491387
    27  H    4.895208   4.630282   2.634720   4.820975   6.387310
    28  H    6.133514   5.312057   5.036254   6.767695   7.622228
    29  H    4.412169   4.843296   1.090207   3.367563   5.628271
    30  H    4.008935   4.839329   1.090516   2.335915   4.952071
    31  H    4.464177   4.834058   1.090283   3.504325   5.725551
    32  H    2.183943   3.458001   4.952042   2.335839   1.090534
    33  H    2.156285   2.804424   5.725565   3.504287   1.090283
    34  H    2.157910   2.907558   5.628297   3.367550   1.090180
    35  H    7.044821   5.851302   7.080787   8.267072   8.383084
    36  C   10.766852   9.375217  11.773264  12.463813  11.773289
    37  C   10.287961   8.932762  10.904771  11.834419  11.418157
    38  C    8.938355   7.599835   9.525777  10.449553  10.108226
    39  C    7.992206   6.610937   9.058228   9.665093   9.058240
    40  C    8.623622   7.221343  10.108210  10.449532   9.525762
    41  C   10.015156   8.612365  11.418143  11.834413  10.904780
    42  H   11.841242  10.447480  12.831245  13.544471  12.831255
    43  H   11.055627   9.731051  11.384117  12.498219  12.244131
    44  H    8.741753   7.469376   8.934004  10.085064  10.007595
    45  H    8.160330   6.768864  10.007609  10.085082   8.934045
    46  H   10.602181   9.204682  12.244151  12.498229  11.384133
                   21         22         23         24         25
    21  C    0.000000
    22  C    1.543914   0.000000
    23  H    2.164132   1.089091   0.000000
    24  H    1.090489   2.180473   2.497027   0.000000
    25  H    1.091079   2.169150   2.485451   1.750995   0.000000
    26  H    2.168965   1.091007   1.747097   2.497868   3.065877
    27  H    6.152007   5.940577   6.794021   7.180652   6.238047
    28  H    5.915334   6.142366   7.180670   6.744392   6.206894
    29  H    7.059620   6.346302   6.950239   8.107553   7.132234
    30  H    7.163424   6.355396   6.712164   8.213613   7.041120
    31  H    6.791336   6.337176   6.883590   7.880488   6.602768
    32  H    5.461257   4.109249   3.713387   6.126366   5.478444
    33  H    4.375864   2.886858   2.430030   4.858626   4.664742
    34  H    4.218602   3.092514   2.421596   4.778252   4.076401
    35  H    5.397355   6.082673   7.144557   5.897731   5.833593
    36  C    7.632843   8.835565   9.659984   7.408142   8.050387
    37  C    7.413571   8.606447   9.497711   7.383770   7.744296
    38  C    6.224208   7.370900   8.298185   6.323880   6.553360
    39  C    5.075754   6.205100   7.108478   5.078573   5.539064
    40  C    5.413854   6.542920   7.347058   5.135716   5.981004
    41  C    6.746337   7.907357   8.677309   6.393602   7.265757
    42  H    8.660267   9.876027  10.678369   8.384769   9.065219
    43  H    8.311115   9.506134  10.412616   8.342488   8.574299
    44  H    6.358798   7.452135   8.411617   6.629893   6.589674
    45  H    4.870094   5.920248   6.657063   4.449147   5.548323
    46  H    7.234369   8.360401   9.054780   6.739535   7.798277
                   26         27         28         29         30
    26  H    0.000000
    27  H    6.223041   0.000000
    28  H    6.220059   2.497034   0.000000
    29  H    6.611437   2.421562   4.778215   0.000000
    30  H    6.815070   3.713340   6.126340   1.771179   0.000000
    31  H    6.864255   2.430002   4.858603   1.762886   1.756122
    32  H    4.500120   6.712119   8.213607   5.560519   4.666973
    33  H    3.025998   6.883582   7.880510   6.200460   5.739122
    34  H    3.760909   6.950245   8.107586   6.368547   5.560560
    35  H    6.031612   4.780836   2.465256   6.969999   8.145275
    36  C    8.685596   9.659958   7.408116  11.805509  12.784212
    37  C    8.553224   8.677317   6.393628  10.925373  11.939585
    38  C    7.363791   7.347096   5.135781   9.569106  10.555140
    39  C    6.124483   7.108466   5.078566   9.141744  10.045512
    40  C    6.331867   8.298181   6.323900  10.198082  11.057742
    41  C    7.680596   9.497702   7.383773  11.481306  12.387096
    42  H    9.709662  10.678371   8.384783  12.849433  13.848126
    43  H    9.495232   9.054793   6.739566  11.380836  12.434233
    44  H    7.535541   6.657032   4.449114   8.968099   9.979159
    45  H    5.620610   8.411620   6.629895  10.123214  10.904588
    46  H    8.063772  10.412645   8.342535  12.312462  13.187751
                   31         32         33         34         35
    31  H    0.000000
    32  H    5.739077   0.000000
    33  H    6.510438   1.756165   0.000000
    34  H    6.200479   1.771139   1.762833   0.000000
    35  H    6.957591   9.199493   8.449425   8.705459   0.000000
    36  C   11.631018  12.784248  11.631076  11.805563   4.962438
    37  C   10.674178  12.387118  11.385334  11.481342   4.042910
    38  C    9.311839  11.057766  10.117406  10.198118   2.781548
    39  C    8.978385  10.045534   8.978424   9.141788   2.718986
    40  C   10.117355  10.555146   9.311860   9.569100   3.972163
    41  C   11.385282  11.939614  10.674224  10.925396   4.939718
    42  H   12.672106  13.848150  12.672150  12.849463   5.955869
    43  H   11.073258  13.187737  12.265642  12.312468   4.556068
    44  H    8.630003  10.904571  10.117184  10.123244   2.355960
    45  H   10.117174   9.979221   8.630065   8.968165   4.450302
    46  H   12.265629  12.434274  11.073303  11.380860   5.918672
                   36         37         38         39         40
    36  C    0.000000
    37  C    1.392079   0.000000
    38  C    2.407571   1.392788   0.000000
    39  C    2.798721   2.429317   1.401451   0.000000
    40  C    2.407617   2.786883   2.411042   1.401438   0.000000
    41  C    1.392099   2.416683   2.786843   2.429297   1.392806
    42  H    1.080658   2.144705   3.386521   3.879379   3.386544
    43  H    2.149153   1.080392   2.148896   3.406977   3.867270
    44  H    3.380832   2.137030   1.080039   2.156862   3.395147
    45  H    3.380867   3.866776   3.395168   2.156880   1.080040
    46  H    2.149250   3.395559   3.867298   3.407004   2.148936
                   41         42         43         44         45
    41  C    0.000000
    42  H    2.144695   0.000000
    43  H    3.395484   2.472407   0.000000
    44  H    3.866736   4.270784   2.459467   0.000000
    45  H    2.137037   4.270786   4.947159   4.297247   0.000000
    46  H    1.080461   2.472451   4.287803   4.947188   2.459456
                   46
    46  H    0.000000
 Stoichiometry    C24H22
 Framework group  C1[X(C24H22)]
 Deg. of freedom   132
 Full point group                 C1      NOp   1
 Largest Abelian subgroup         C1      NOp   1
 Largest concise Abelian subgroup C1      NOp   1
                         Standard orientation:                         
 ---------------------------------------------------------------------
 Center     Atomic      Atomic             Coordinates (Angstroms)
 Number     Number       Type             X           Y           Z
 ---------------------------------------------------------------------
      1          6           0       -1.615514   -1.159060   -0.311248
      2          6           0       -2.335897   -0.000001    0.000028
      3          6           0       -1.615518    1.159038    0.311146
      4          6           0       -0.218846    1.176045    0.326211
      5          1           0       -2.149322    2.060460    0.571937
      6          6           0       -0.218881   -1.176083   -0.326316
      7          6           0        0.475662    0.000055   -0.000049
      8          6           0        1.840085   -2.515815    0.196111
      9          6           0        0.577563   -2.423780   -0.687664
     10          1           0        1.548201   -2.658114    1.237677
     11          1           0        0.868837   -2.365309   -1.737618
     12          6           0        1.978032    0.000010   -0.000012
     13          6           0        2.666591   -1.227624    0.089407
     14          6           0        4.070723   -1.211067    0.084794
     15          6           0        4.756260    0.000002    0.000034
     16          6           0        4.070724    1.211018   -0.084754
     17          6           0        2.666596    1.227607   -0.089438
     18          6           0        4.876225   -2.497428    0.194524
     19          1           0        5.836347    0.000028    0.000006
     20          6           0        4.876233    2.497451   -0.194480
     21          6           0        0.577560    2.423786    0.687732
     22          6           0        1.840085    2.515780   -0.196144
     23          1           0        2.415500    3.395911    0.087383
     24          1           0       -0.031364    3.321975    0.579866
     25          1           0        0.868858    2.365267    1.737576
     26          1           0        1.548222    2.658130   -1.237704
     27          1           0        2.415515   -3.395862   -0.087383
     28          1           0       -0.031349   -3.321952   -0.579901
     29          1           0        4.740507   -3.106478   -0.699450
     30          1           0        5.941981   -2.310080    0.329766
     31          1           0        4.538749   -3.080646    1.051662
     32          1           0        5.942011    2.310072   -0.329650
     33          1           0        4.538788    3.080686   -1.051618
     34          1           0        4.740531    3.106532    0.699442
     35          1           0       -2.149374   -2.060447   -0.572000
     36          6           0       -6.627466   -0.000032   -0.000014
     37          6           0       -5.936219   -1.109985    0.477547
     38          6           0       -4.543433   -1.107679    0.475722
     39          6           0       -3.828745   -0.000001   -0.000025
     40          6           0       -4.543416    1.107731   -0.475635
     41          6           0       -5.936219    1.109992   -0.477470
     42          1           0       -7.708124    0.000005    0.000020
     43          1           0       -6.476621   -1.967865    0.850715
     44          1           0       -4.017176   -1.968560    0.860977
     45          1           0       -4.017197    1.968556   -0.861072
     46          1           0       -6.476630    1.967936   -0.850675
 ---------------------------------------------------------------------
 Rotational constants (GHZ):           0.6094996           0.1213326           0.1030979
 Standard basis: def2TZVP (5D, 7F)
 There are   996 symmetry adapted cartesian basis functions of A   symmetry.
 There are   876 symmetry adapted basis functions of A   symmetry.
   876 basis functions,  1400 primitive gaussians,   996 cartesian basis functions
    83 alpha electrons       83 beta electrons
       nuclear repulsion energy      1873.3916291981 Hartrees.
 NAtoms=   46 NActive=   46 NUniq=   46 SFac= 1.00D+00 NAtFMM=   60 NAOKFM=F Big=F
 Integral buffers will be    131072 words long.
 Raffenetti 2 integral format.
 Two-electron integral symmetry is turned on.
 One-electron integrals computed using PRISM.
   1 Symmetry operations used in ECPInt.
 ECPInt:  NShTT=   62128 NPrTT=  188172 LenC2=   51465 LenP2D=  110033.
 LDataN:  DoStor=T MaxTD1= 6 Len=  172
 Number of processors reduced to  27 by ecpmxn.
 NBasis=   876 RedAO= T EigKep=  2.95D-06  NBF=   876
 NBsUse=   876 1.00D-06 EigRej= -1.00D+00 NBFU=   876
 ExpMin= 9.52D-02 ExpMax= 1.36D+04 ExpMxC= 4.63D+02 IAcc=3 IRadAn=         5 AccDes= 0.00D+00
 Harris functional with IExCor= 1009 and IRadAn=       5 diagonalized for initial guess.
 HarFok:  IExCor= 1009 AccDes= 0.00D+00 IRadAn=         5 IDoV= 1 UseB2=F ITyADJ=14
 ICtDFT=  3500011 ScaDFX=  1.000000  1.000000  1.000000  1.000000
 FoFCou: FMM=F IPFlag=           0 FMFlag=      100000 FMFlg1=           0
         NFxFlg=           0 DoJE=T BraDBF=F KetDBF=T FulRan=T
         wScrn=  0.000000 ICntrl=       500 IOpCl=  0 I1Cent=   200000004 NGrid=           0
         NMat0=    1 NMatS0=      1 NMatT0=    0 NMatD0=    1 NMtDS0=    0 NMtDT0=    0
 Petite list used in FoFCou.
 Requested convergence on RMS density matrix=1.00D-08 within 128 cycles.
 Requested convergence on MAX density matrix=1.00D-06.
 Requested convergence on             energy=1.00D-06.
 No special actions if energy rises.
 Integral accuracy reduced to 1.0D-05 until final iterations.
 Problem detected with inexpensive integrals.
 Switching to full accuracy and repeating last cycle.
 SCF Done:  E(RM062X) =  -927.784943400     A.U. after   13 cycles
            NFock= 13  Conv=0.67D-08     -V/T= 2.0057

 **********************************************************************

            Population analysis using the SCF Density.

 **********************************************************************

 Orbital symmetries:
       Occupied  (A) (A) (A) (A) (A) (A) (A) (A) (A) (A) (A) (A)
                 (A) (A) (A) (A) (A) (A) (A) (A) (A) (A) (A) (A)
                 (A) (A) (A) (A) (A) (A) (A) (A) (A) (A) (A) (A)
                 (A) (A) (A) (A) (A) (A) (A) (A) (A) (A) (A) (A)
                 (A) (A) (A) (A) (A) (A) (A) (A) (A) (A) (A) (A)
                 (A) (A) (A) (A) (A) (A) (A) (A) (A) (A) (A) (A)
                 (A) (A) (A) (A) (A) (A) (A) (A) (A) (A) (A)
       Virtual   (A) (A) (A) (A) (A) (A) (A) (A) (A) (A) (A) (A)
                 (A) (A) (A) (A) (A) (A) (A) (A) (A) (A) (A) (A)
                 (A) (A) (A) (A) (A) (A) (A) (A) (A) (A) (A) (A)
                 (A) (A) (A) (A) (A) (A) (A) (A) (A) (A) (A) (A)
                 (A) (A) (A) (A) (A) (A) (A) (A) (A) (A) (A) (A)
                 (A) (A) (A) (A) (A) (A) (A) (A) (A) (A) (A) (A)
                 (A) (A) (A) (A) (A) (A) (A) (A) (A) (A) (A) (A)
                 (A) (A) (A) (A) (A) (A) (A) (A) (A) (A) (A) (A)
                 (A) (A) (A) (A) (A) (A) (A) (A) (A) (A) (A) (A)
                 (A) (A) (A) (A) (A) (A) (A) (A) (A) (A) (A) (A)
                 (A) (A) (A) (A) (A) (A) (A) (A) (A) (A) (A) (A)
                 (A) (A) (A) (A) (A) (A) (A) (A) (A) (A) (A) (A)
                 (A) (A) (A) (A) (A) (A) (A) (A) (A) (A) (A) (A)
                 (A) (A) (A) (A) (A) (A) (A) (A) (A) (A) (A) (A)
                 (A) (A) (A) (A) (A) (A) (A) (A) (A) (A) (A) (A)
                 (A) (A) (A) (A) (A) (A) (A) (A) (A) (A) (A) (A)
                 (A) (A) (A) (A) (A) (A) (A) (A) (A) (A) (A) (A)
                 (A) (A) (A) (A) (A) (A) (A) (A) (A) (A) (A) (A)
                 (A) (A) (A) (A) (A) (A) (A) (A) (A) (A) (A) (A)
                 (A) (A) (A) (A) (A) (A) (A) (A) (A) (A) (A) (A)
                 (A) (A) (A) (A) (A) (A) (A) (A) (A) (A) (A) (A)
                 (A) (A) (A) (A) (A) (A) (A) (A) (A) (A) (A) (A)
                 (A) (A) (A) (A) (A) (A) (A) (A) (A) (A) (A) (A)
                 (A) (A) (A) (A) (A) (A) (A) (A) (A) (A) (A) (A)
                 (A) (A) (A) (A) (A) (A) (A) (A) (A) (A) (A) (A)
                 (A) (A) (A) (A) (A) (A) (A) (A) (A) (A) (A) (A)
                 (A) (A) (A) (A) (A) (A) (A) (A) (A) (A) (A) (A)
                 (A) (A) (A) (A) (A) (A) (A) (A) (A) (A) (A) (A)
                 (A) (A) (A) (A) (A) (A) (A) (A) (A) (A) (A) (A)
                 (A) (A) (A) (A) (A) (A) (A) (A) (A) (A) (A) (A)
                 (A) (A) (A) (A) (A) (A) (A) (A) (A) (A) (A) (A)
                 (A) (A) (A) (A) (A) (A) (A) (A) (A) (A) (A) (A)
                 (A) (A) (A) (A) (A) (A) (A) (A) (A) (A) (A) (A)
                 (A) (A) (A) (A) (A) (A) (A) (A) (A) (A) (A) (A)
                 (A) (A) (A) (A) (A) (A) (A) (A) (A) (A) (A) (A)
                 (A) (A) (A) (A) (A) (A) (A) (A) (A) (A) (A) (A)
                 (A) (A) (A) (A) (A) (A) (A) (A) (A) (A) (A) (A)
                 (A) (A) (A) (A) (A) (A) (A) (A) (A) (A) (A) (A)
                 (A) (A) (A) (A) (A) (A) (A) (A) (A) (A) (A) (A)
                 (A) (A) (A) (A) (A) (A) (A) (A) (A) (A) (A) (A)
                 (A) (A) (A) (A) (A) (A) (A) (A) (A) (A) (A) (A)
                 (A) (A) (A) (A) (A) (A) (A) (A) (A) (A) (A) (A)
                 (A) (A) (A) (A) (A) (A) (A) (A) (A) (A) (A) (A)
                 (A) (A) (A) (A) (A) (A) (A) (A) (A) (A) (A) (A)
                 (A) (A) (A) (A) (A) (A) (A) (A) (A) (A) (A) (A)
                 (A) (A) (A) (A) (A) (A) (A) (A) (A) (A) (A) (A)
                 (A) (A) (A) (A) (A) (A) (A) (A) (A) (A) (A) (A)
                 (A) (A) (A) (A) (A) (A) (A) (A) (A) (A) (A) (A)
                 (A) (A) (A) (A) (A) (A) (A) (A) (A) (A) (A) (A)
                 (A) (A) (A) (A) (A) (A) (A) (A) (A) (A) (A) (A)
                 (A) (A) (A) (A) (A) (A) (A) (A) (A) (A) (A) (A)
                 (A) (A) (A) (A) (A) (A) (A) (A) (A) (A) (A) (A)
                 (A) (A) (A) (A) (A) (A) (A) (A) (A) (A) (A) (A)
                 (A) (A) (A) (A) (A) (A) (A) (A) (A) (A) (A) (A)
                 (A) (A) (A) (A) (A) (A) (A) (A) (A) (A) (A) (A)
                 (A) (A) (A) (A) (A) (A) (A) (A) (A) (A) (A) (A)
                 (A) (A) (A) (A) (A) (A) (A) (A) (A) (A) (A) (A)
                 (A) (A) (A) (A) (A) (A) (A) (A) (A) (A) (A) (A)
                 (A) (A) (A) (A) (A) (A) (A) (A) (A) (A) (A) (A)
                 (A) (A) (A) (A) (A) (A) (A) (A) (A) (A) (A) (A)
                 (A) (A) (A) (A) (A) (A) (A) (A) (A) (A) (A) (A)
                 (A) (A) (A) (A) (A) (A) (A) (A) (A) (A) (A) (A)
                 (A) (A) (A) (A) (A) (A) (A) (A) (A) (A) (A) (A)
                 (A) (A) (A) (A) (A) (A) (A) (A) (A) (A) (A) (A)
                 (A) (A) (A) (A) (A) (A) (A) (A) (A) (A) (A) (A)
                 (A) (A) (A) (A) (A) (A) (A) (A) (A) (A) (A) (A)
                 (A)
 The electronic state is 1-A.
 Alpha  occ. eigenvalues --  -10.55280 -10.54957 -10.54767 -10.54761 -10.54448
 Alpha  occ. eigenvalues --  -10.54360 -10.54332 -10.54319 -10.54256 -10.54250
 Alpha  occ. eigenvalues --  -10.54143 -10.54136 -10.54054 -10.54049 -10.54035
 Alpha  occ. eigenvalues --  -10.54035 -10.53979 -10.53979 -10.53918 -10.53507
 Alpha  occ. eigenvalues --  -10.53504 -10.52920 -10.52920 -10.52847  -0.98647
 Alpha  occ. eigenvalues --   -0.96661  -0.94823  -0.91711  -0.89894  -0.87166
 Alpha  occ. eigenvalues --   -0.85440  -0.84307  -0.83866  -0.82051  -0.80686
 Alpha  occ. eigenvalues --   -0.77984  -0.76011  -0.71179  -0.71131  -0.71046
 Alpha  occ. eigenvalues --   -0.68594  -0.66732  -0.66131  -0.62588  -0.60896
 Alpha  occ. eigenvalues --   -0.59427  -0.56561  -0.55895  -0.53977  -0.53843
 Alpha  occ. eigenvalues --   -0.53530  -0.51951  -0.51710  -0.50028  -0.49717
 Alpha  occ. eigenvalues --   -0.49079  -0.48703  -0.48324  -0.47966  -0.47345
 Alpha  occ. eigenvalues --   -0.46479  -0.45598  -0.44967  -0.44449  -0.44327
 Alpha  occ. eigenvalues --   -0.43831  -0.43623  -0.42817  -0.42629  -0.42011
 Alpha  occ. eigenvalues --   -0.41598  -0.40547  -0.39816  -0.38969  -0.38481
 Alpha  occ. eigenvalues --   -0.35965  -0.35897  -0.33818  -0.30793  -0.29916
 Alpha  occ. eigenvalues --   -0.29240  -0.27577  -0.25296
 Alpha virt. eigenvalues --   -0.01566   0.01867   0.02295   0.02909   0.03321
 Alpha virt. eigenvalues --    0.06404   0.06694   0.07990   0.08266   0.09122
 Alpha virt. eigenvalues --    0.09271   0.09966   0.10595   0.11480   0.11517
 Alpha virt. eigenvalues --    0.12123   0.12731   0.12841   0.13473   0.13911
 Alpha virt. eigenvalues --    0.14377   0.14686   0.15206   0.15660   0.15910
 Alpha virt. eigenvalues --    0.16230   0.16234   0.16960   0.17565   0.18090
 Alpha virt. eigenvalues --    0.18317   0.18736   0.19988   0.20198   0.20942
 Alpha virt. eigenvalues --    0.21078   0.21223   0.21556   0.21843   0.22282
 Alpha virt. eigenvalues --    0.22722   0.22777   0.23213   0.24207   0.24605
 Alpha virt. eigenvalues --    0.25179   0.25642   0.26117   0.26448   0.26629
 Alpha virt. eigenvalues --    0.26997   0.27531   0.27954   0.28151   0.28305
 Alpha virt. eigenvalues --    0.28510   0.29090   0.29394   0.30084   0.30502
 Alpha virt. eigenvalues --    0.31082   0.31624   0.31767   0.32060   0.32864
 Alpha virt. eigenvalues --    0.33203   0.33502   0.33662   0.34222   0.34330
 Alpha virt. eigenvalues --    0.35660   0.36012   0.36299   0.36529   0.36579
 Alpha virt. eigenvalues --    0.37410   0.38112   0.38327   0.38667   0.39241
 Alpha virt. eigenvalues --    0.39286   0.40297   0.40390   0.40707   0.40803
 Alpha virt. eigenvalues --    0.41530   0.41627   0.41976   0.42044   0.42190
 Alpha virt. eigenvalues --    0.42685   0.43652   0.43689   0.44029   0.44728
 Alpha virt. eigenvalues --    0.44871   0.45211   0.45373   0.45662   0.45781
 Alpha virt. eigenvalues --    0.46329   0.46497   0.46827   0.46927   0.47176
 Alpha virt. eigenvalues --    0.48423   0.48424   0.48834   0.48964   0.49971
 Alpha virt. eigenvalues --    0.50094   0.50245   0.50535   0.50821   0.51257
 Alpha virt. eigenvalues --    0.51690   0.51994   0.52310   0.52970   0.53372
 Alpha virt. eigenvalues --    0.53526   0.53779   0.54278   0.54525   0.54919
 Alpha virt. eigenvalues --    0.55258   0.55637   0.56678   0.57235   0.57942
 Alpha virt. eigenvalues --    0.58507   0.58626   0.59696   0.60471   0.60803
 Alpha virt. eigenvalues --    0.61348   0.61679   0.61826   0.62615   0.64049
 Alpha virt. eigenvalues --    0.64375   0.64919   0.65169   0.66589   0.67061
 Alpha virt. eigenvalues --    0.67660   0.67896   0.68262   0.68433   0.69306
 Alpha virt. eigenvalues --    0.69926   0.70196   0.70382   0.71523   0.71607
 Alpha virt. eigenvalues --    0.72311   0.73246   0.73306   0.74273   0.74576
 Alpha virt. eigenvalues --    0.74579   0.75297   0.75803   0.76713   0.77279
 Alpha virt. eigenvalues --    0.77964   0.78131   0.78360   0.78615   0.78649
 Alpha virt. eigenvalues --    0.79749   0.79868   0.79900   0.81976   0.81985
 Alpha virt. eigenvalues --    0.82941   0.83281   0.83750   0.84179   0.85592
 Alpha virt. eigenvalues --    0.85910   0.86469   0.86630   0.87651   0.88099
 Alpha virt. eigenvalues --    0.88602   0.89478   0.90177   0.90279   0.90787
 Alpha virt. eigenvalues --    0.90960   0.91326   0.91583   0.92858   0.93620
 Alpha virt. eigenvalues --    0.93778   0.94631   0.94883   0.96233   0.96740
 Alpha virt. eigenvalues --    0.96794   0.97132   0.97646   0.98223   0.99362
 Alpha virt. eigenvalues --    0.99702   1.00553   1.01381   1.01410   1.02336
 Alpha virt. eigenvalues --    1.04365   1.04892   1.05121   1.05142   1.06106
 Alpha virt. eigenvalues --    1.06229   1.07461   1.07903   1.08446   1.09531
 Alpha virt. eigenvalues --    1.09684   1.10036   1.10577   1.12291   1.13368
 Alpha virt. eigenvalues --    1.14700   1.14875   1.15376   1.15984   1.16301
 Alpha virt. eigenvalues --    1.17194   1.17833   1.18601   1.19956   1.20703
 Alpha virt. eigenvalues --    1.21970   1.22577   1.23388   1.23470   1.23591
 Alpha virt. eigenvalues --    1.23893   1.24009   1.25361   1.25916   1.26434
 Alpha virt. eigenvalues --    1.26735   1.27330   1.27716   1.28115   1.28548
 Alpha virt. eigenvalues --    1.28973   1.30426   1.31108   1.31473   1.32371
 Alpha virt. eigenvalues --    1.32697   1.34280   1.35005   1.35265   1.36315
 Alpha virt. eigenvalues --    1.37601   1.37603   1.38599   1.39120   1.39490
 Alpha virt. eigenvalues --    1.40777   1.41022   1.41537   1.42344   1.42873
 Alpha virt. eigenvalues --    1.43606   1.44942   1.45756   1.46166   1.46536
 Alpha virt. eigenvalues --    1.46949   1.49267   1.49488   1.49543   1.49625
 Alpha virt. eigenvalues --    1.51401   1.51430   1.52835   1.53014   1.54317
 Alpha virt. eigenvalues --    1.55361   1.55708   1.55949   1.56637   1.57582
 Alpha virt. eigenvalues --    1.58394   1.58651   1.59016   1.59699   1.60426
 Alpha virt. eigenvalues --    1.60469   1.60656   1.61136   1.61772   1.62175
 Alpha virt. eigenvalues --    1.62495   1.62668   1.64004   1.64594   1.65058
 Alpha virt. eigenvalues --    1.65183   1.65937   1.66402   1.67472   1.68264
 Alpha virt. eigenvalues --    1.68656   1.70084   1.70810   1.71094   1.71594
 Alpha virt. eigenvalues --    1.72190   1.72327   1.72807   1.73407   1.73571
 Alpha virt. eigenvalues --    1.74587   1.75226   1.75252   1.76029   1.76652
 Alpha virt. eigenvalues --    1.77271   1.77673   1.78090   1.79425   1.80384
 Alpha virt. eigenvalues --    1.80857   1.81455   1.82845   1.84293   1.85684
 Alpha virt. eigenvalues --    1.86172   1.88180   1.88903   1.89182   1.89845
 Alpha virt. eigenvalues --    1.90522   1.91941   1.93260   1.93285   1.93537
 Alpha virt. eigenvalues --    1.94528   1.95908   1.97156   1.98363   2.00327
 Alpha virt. eigenvalues --    2.01320   2.01446   2.02127   2.02313   2.02916
 Alpha virt. eigenvalues --    2.04467   2.04615   2.05351   2.07103   2.07757
 Alpha virt. eigenvalues --    2.07818   2.08491   2.09709   2.09787   2.10025
 Alpha virt. eigenvalues --    2.10649   2.10867   2.12033   2.13051   2.13178
 Alpha virt. eigenvalues --    2.14234   2.14571   2.15304   2.16518   2.16645
 Alpha virt. eigenvalues --    2.17559   2.18418   2.19408   2.19960   2.20278
 Alpha virt. eigenvalues --    2.21011   2.22355   2.22907   2.23822   2.24669
 Alpha virt. eigenvalues --    2.25074   2.25414   2.25419   2.26227   2.26863
 Alpha virt. eigenvalues --    2.27108   2.28037   2.28408   2.28800   2.29454
 Alpha virt. eigenvalues --    2.31511   2.31816   2.34928   2.36066   2.36192
 Alpha virt. eigenvalues --    2.36216   2.37202   2.39301   2.39837   2.39898
 Alpha virt. eigenvalues --    2.41650   2.42989   2.43338   2.45539   2.45691
 Alpha virt. eigenvalues --    2.46034   2.47236   2.47784   2.47890   2.48451
 Alpha virt. eigenvalues --    2.48582   2.51056   2.51157   2.51258   2.52238
 Alpha virt. eigenvalues --    2.52972   2.53379   2.54250   2.55516   2.56067
 Alpha virt. eigenvalues --    2.56976   2.57397   2.57880   2.58113   2.58460
 Alpha virt. eigenvalues --    2.58568   2.60429   2.61337   2.61863   2.62112
 Alpha virt. eigenvalues --    2.63578   2.63903   2.64057   2.64830   2.64832
 Alpha virt. eigenvalues --    2.65517   2.65942   2.66198   2.67748   2.68143
 Alpha virt. eigenvalues --    2.68356   2.68449   2.68773   2.69559   2.69878
 Alpha virt. eigenvalues --    2.70304   2.71003   2.71350   2.71604   2.71864
 Alpha virt. eigenvalues --    2.72902   2.73133   2.74166   2.75785   2.76015
 Alpha virt. eigenvalues --    2.77535   2.77678   2.77949   2.79177   2.79396
 Alpha virt. eigenvalues --    2.79898   2.81146   2.81916   2.82226   2.82501
 Alpha virt. eigenvalues --    2.82984   2.83141   2.84177   2.84881   2.85227
 Alpha virt. eigenvalues --    2.86615   2.86616   2.87676   2.87919   2.88059
 Alpha virt. eigenvalues --    2.88382   2.89554   2.90159   2.90549   2.91038
 Alpha virt. eigenvalues --    2.91811   2.91958   2.92812   2.93402   2.93939
 Alpha virt. eigenvalues --    2.94481   2.94813   2.95755   2.95911   2.96618
 Alpha virt. eigenvalues --    2.98254   2.98720   2.99056   3.00769   3.01108
 Alpha virt. eigenvalues --    3.01162   3.02193   3.03983   3.04316   3.05039
 Alpha virt. eigenvalues --    3.05127   3.05913   3.06550   3.06600   3.07862
 Alpha virt. eigenvalues --    3.07919   3.08804   3.08956   3.09151   3.09934
 Alpha virt. eigenvalues --    3.10338   3.10403   3.11069   3.12339   3.12742
 Alpha virt. eigenvalues --    3.13214   3.14345   3.14623   3.15225   3.15534
 Alpha virt. eigenvalues --    3.15798   3.16357   3.16401   3.16723   3.17678
 Alpha virt. eigenvalues --    3.17832   3.18659   3.19331   3.19849   3.20097
 Alpha virt. eigenvalues --    3.21021   3.21192   3.21480   3.21552   3.23288
 Alpha virt. eigenvalues --    3.24318   3.24400   3.25040   3.25080   3.25769
 Alpha virt. eigenvalues --    3.27179   3.27252   3.27570   3.27921   3.28082
 Alpha virt. eigenvalues --    3.28465   3.29463   3.30327   3.30358   3.31332
 Alpha virt. eigenvalues --    3.31529   3.32053   3.33033   3.33075   3.33485
 Alpha virt. eigenvalues --    3.34059   3.34164   3.34502   3.35117   3.35315
 Alpha virt. eigenvalues --    3.35829   3.36245   3.36647   3.37224   3.38205
 Alpha virt. eigenvalues --    3.39133   3.39386   3.40467   3.40641   3.41038
 Alpha virt. eigenvalues --    3.42308   3.42437   3.42514   3.43465   3.43585
 Alpha virt. eigenvalues --    3.43977   3.44268   3.45332   3.45492   3.46774
 Alpha virt. eigenvalues --    3.46992   3.48554   3.49237   3.49256   3.50474
 Alpha virt. eigenvalues --    3.50807   3.51610   3.52492   3.52648   3.53913
 Alpha virt. eigenvalues --    3.54047   3.54260   3.54463   3.54606   3.55843
 Alpha virt. eigenvalues --    3.56164   3.56663   3.57138   3.57184   3.58331
 Alpha virt. eigenvalues --    3.59506   3.59723   3.60547   3.61239   3.62164
 Alpha virt. eigenvalues --    3.63424   3.63837   3.64582   3.64593   3.66700
 Alpha virt. eigenvalues --    3.67224   3.67741   3.68648   3.68967   3.69374
 Alpha virt. eigenvalues --    3.69596   3.70242   3.71244   3.71529   3.73777
 Alpha virt. eigenvalues --    3.74686   3.75064   3.75163   3.77412   3.77847
 Alpha virt. eigenvalues --    3.78940   3.79589   3.80669   3.80830   3.82053
 Alpha virt. eigenvalues --    3.83180   3.85124   3.85516   3.86403   3.86459
 Alpha virt. eigenvalues --    3.87741   3.89578   3.90702   3.91879   3.92636
 Alpha virt. eigenvalues --    3.93537   3.93574   3.95869   3.96697   3.97219
 Alpha virt. eigenvalues --    3.98793   3.98904   3.99654   4.00364   4.02796
 Alpha virt. eigenvalues --    4.03805   4.04402   4.05307   4.06531   4.06586
 Alpha virt. eigenvalues --    4.08027   4.08726   4.09649   4.11099   4.11187
 Alpha virt. eigenvalues --    4.11901   4.12202   4.13271   4.14725   4.15238
 Alpha virt. eigenvalues --    4.16228   4.16833   4.17467   4.18021   4.18265
 Alpha virt. eigenvalues --    4.18764   4.19473   4.20051   4.20088   4.20716
 Alpha virt. eigenvalues --    4.20959   4.22650   4.23096   4.23554   4.24591
 Alpha virt. eigenvalues --    4.25503   4.26647   4.28140   4.28698   4.29204
 Alpha virt. eigenvalues --    4.31289   4.31293   4.31867   4.32433   4.33899
 Alpha virt. eigenvalues --    4.35089   4.35664   4.35915   4.36553   4.37521
 Alpha virt. eigenvalues --    4.38765   4.41057   4.41147   4.41646   4.42497
 Alpha virt. eigenvalues --    4.44793   4.45947   4.46166   4.47665   4.48694
 Alpha virt. eigenvalues --    4.50301   4.51109   4.51454   4.53689   4.54777
 Alpha virt. eigenvalues --    4.58418   4.59785   4.59912   4.60735   4.63722
 Alpha virt. eigenvalues --    4.64387   4.64841   4.65976   4.66645   4.66966
 Alpha virt. eigenvalues --    4.68898   4.71045   4.73080   4.73913   4.74979
 Alpha virt. eigenvalues --    4.76687   4.78132   4.79298   4.79713   4.82563
 Alpha virt. eigenvalues --    4.85314   4.86800   4.89249   4.89633   4.92242
 Alpha virt. eigenvalues --    4.92589   4.97114   5.02049   5.03655   5.05186
 Alpha virt. eigenvalues --    5.06369   5.07888   5.13193   5.17121   5.18105
 Alpha virt. eigenvalues --    5.21493   5.23911   5.24236   5.27584   5.30487
 Alpha virt. eigenvalues --    5.34117   5.36320   5.38461   5.39972   5.40894
 Alpha virt. eigenvalues --    5.47806   5.50216   5.57849   5.58022   5.62799
 Alpha virt. eigenvalues --    5.66232   5.72618   5.74671   5.95250  22.13665
 Alpha virt. eigenvalues --   22.37992  22.53326  22.55566  22.59273  22.64887
 Alpha virt. eigenvalues --   22.68975  22.69289  22.71645  22.72464  22.81290
 Alpha virt. eigenvalues --   22.84994  22.92527  23.00806  23.00924  23.08480
 Alpha virt. eigenvalues --   23.12667  23.18191  23.23319  23.26926  23.28376
 Alpha virt. eigenvalues --   23.38555  23.71747  23.92059
          Condensed to atoms (all electrons):
               1          2          3          4          5          6
     1  C    5.282335   0.468095  -0.011001  -0.110076   0.006752   0.425576
     2  C    0.468095   4.973529   0.468191  -0.028012  -0.026270  -0.028015
     3  C   -0.011001   0.468191   5.282313   0.425552   0.354446  -0.110021
     4  C   -0.110076  -0.028012   0.425552   5.331919  -0.005144  -0.005284
     5  H    0.006752  -0.026270   0.354446  -0.005144   0.493908   0.000386
     6  C    0.425576  -0.028015  -0.110021  -0.005284   0.000386   5.331832
     7  C   -0.043788  -0.062183  -0.043855   0.330948   0.013501   0.330933
     8  C   -0.012001   0.000554  -0.001656   0.011668  -0.000026  -0.041101
     9  C   -0.056372   0.008887  -0.000078   0.009891   0.000093   0.222370
    10  H    0.003256  -0.000461   0.000090   0.000583   0.000000  -0.011474
    11  H    0.000224  -0.000631  -0.000085   0.000920  -0.000006  -0.055917
    12  C    0.001823   0.002937   0.001819  -0.064282  -0.000304  -0.064261
    13  C    0.008639  -0.000093  -0.003175   0.008612   0.000036  -0.011679
    14  C    0.000946  -0.000089   0.000276  -0.002806   0.000000   0.000398
    15  C   -0.000102  -0.000004  -0.000102  -0.000147   0.000001  -0.000147
    16  C    0.000276  -0.000089   0.000946   0.000403  -0.000000  -0.002808
    17  C   -0.003174  -0.000094   0.008641  -0.011672   0.000092   0.008614
    18  C    0.000028  -0.000002   0.000005  -0.000182   0.000000   0.001577
    19  H   -0.000001   0.000000  -0.000001  -0.000001  -0.000000  -0.000001
    20  C    0.000005  -0.000002   0.000028   0.001578   0.000001  -0.000182
    21  C   -0.000082   0.008888  -0.056367   0.222378  -0.004846   0.009894
    22  C   -0.001656   0.000552  -0.011993  -0.041162   0.000488   0.011666
    23  H    0.000004   0.000018  -0.000423   0.017052  -0.000035  -0.000142
    24  H    0.000495   0.000347  -0.003519  -0.063043   0.004449  -0.000344
    25  H   -0.000084  -0.000630   0.000229  -0.055883  -0.000336   0.000916
    26  H    0.000091  -0.000461   0.003259  -0.011467  -0.000040   0.000582
    27  H   -0.000422   0.000018   0.000004  -0.000142   0.000000   0.017049
    28  H   -0.003526   0.000348   0.000495  -0.000344  -0.000001  -0.063038
    29  H    0.000005   0.000000  -0.000000  -0.000011  -0.000000   0.000253
    30  H    0.000000   0.000000   0.000000   0.000004  -0.000000   0.000001
    31  H   -0.000002  -0.000000   0.000001  -0.000003  -0.000000  -0.000313
    32  H    0.000000   0.000000   0.000000   0.000001  -0.000000   0.000004
    33  H    0.000001  -0.000000  -0.000002  -0.000313   0.000000  -0.000003
    34  H   -0.000000   0.000000   0.000005   0.000253  -0.000000  -0.000011
    35  H    0.354465  -0.026290   0.006748   0.000388  -0.000333  -0.005137
    36  C    0.000148  -0.003545   0.000146  -0.000078  -0.000054  -0.000077
    37  C    0.000966   0.005940  -0.000915   0.000191  -0.000128  -0.000062
    38  C   -0.002291  -0.081269   0.009250  -0.000770   0.000013   0.004830
    39  C   -0.072488   0.259153  -0.072475   0.003169   0.001096   0.003158
    40  C    0.009249  -0.081260  -0.002299   0.004821   0.002356  -0.000765
    41  C   -0.000916   0.005938   0.000970  -0.000059   0.000673   0.000191
    42  H   -0.000008   0.000125  -0.000008  -0.000000  -0.000000  -0.000000
    43  H    0.000035  -0.000027   0.000029   0.000001   0.000001   0.000005
    44  H    0.003249   0.004946   0.000097  -0.000103   0.000033   0.001730
    45  H    0.000095   0.004946   0.003248   0.001727  -0.002295  -0.000102
    46  H    0.000029  -0.000027   0.000035   0.000005   0.000052   0.000001
               7          8          9         10         11         12
     1  C   -0.043788  -0.012001  -0.056372   0.003256   0.000224   0.001823
     2  C   -0.062183   0.000554   0.008887  -0.000461  -0.000631   0.002937
     3  C   -0.043855  -0.001656  -0.000078   0.000090  -0.000085   0.001819
     4  C    0.330948   0.011668   0.009891   0.000583   0.000920  -0.064282
     5  H    0.013501  -0.000026   0.000093   0.000000  -0.000006  -0.000304
     6  C    0.330933  -0.041101   0.222370  -0.011474  -0.055917  -0.064261
     7  C    5.471980  -0.007490  -0.070112   0.002484  -0.007136   0.208727
     8  C   -0.007490   5.276620   0.268380   0.434758  -0.038938  -0.061238
     9  C   -0.070112   0.268380   5.224905  -0.035408   0.430468   0.004305
    10  H    0.002484   0.434758  -0.035408   0.522561   0.006681  -0.002941
    11  H   -0.007136  -0.038938   0.430468   0.006681   0.531542   0.001351
    12  C    0.208727  -0.061238   0.004305  -0.002941   0.001351   5.391390
    13  C   -0.084358   0.190552  -0.057279  -0.068437  -0.010451   0.320594
    14  C    0.011432  -0.049923  -0.010566   0.002542   0.002874  -0.021179
    15  C   -0.006496   0.009662   0.000905  -0.000308  -0.000062  -0.092122
    16  C    0.011425  -0.000950  -0.001834   0.000396  -0.000102  -0.021172
    17  C   -0.084369   0.008762   0.010771   0.000467   0.000975   0.320615
    18  C   -0.001832  -0.003032  -0.003170  -0.001578  -0.000013   0.019986
    19  H    0.000233  -0.000284   0.000050  -0.000000  -0.000002  -0.001754
    20  C   -0.001832   0.000015  -0.000015  -0.000002  -0.000003   0.019989
    21  C   -0.070089   0.001051  -0.000486  -0.000157   0.000069   0.004281
    22  C   -0.007482  -0.000382   0.001051   0.000040  -0.000089  -0.061228
    23  H   -0.004738   0.000012  -0.000007  -0.000003   0.000000   0.013231
    24  H    0.021756  -0.000013  -0.000003   0.000000  -0.000002  -0.004094
    25  H   -0.007147  -0.000089   0.000069   0.000031   0.000008   0.001355
    26  H    0.002480   0.000040  -0.000157   0.000008   0.000031  -0.002946
    27  H   -0.004737   0.455301  -0.053069  -0.026069  -0.002104   0.013228
    28  H    0.021752  -0.055402   0.439097  -0.001864  -0.023655  -0.004096
[...]
 ,0.00000211,0.00000111,0.00000201,-0.00000035,-0.00000128,-0.00000131,
 -0.00000354,0.00000123,0.00000223,-0.00000483,0.00000165,-0.00000658,-
 0.00000134,-0.00000071,-0.00000009,-0.00000037,0.00000028,-0.00000030,
 -0.00000058,0.00000129,0.00000018,-0.00000039,0.00000019,0.00000029,0.
 00000056,0.00000007,-0.00000028,0.,-0.00000042,-0.00000037,-0.00003487
 ,-0.00002538,0.00002719,-0.00064299,0.00956898,-0.02465872,-0.06578021
 ,0.03242117,-0.05035041,0.00803397,-0.00842344,0.01821217,0.00000498,0
 .00360131,0.00405963,-0.00113874,0.00011670,0.00047837,-0.00221585,0.0
 0582791,0.00084011,-0.00032568,-0.00224750,-0.00012608,0.06276292,-0.0
 0008761,-0.00007654,0.00004344,-0.00007648,0.00020863,-0.00022370,0.00
 003276,-0.00008983,0.00001622,-0.00006152,0.00000705,0.00000011,-0.000
 03057,-0.00001573,-0.00000188,0.00001571,0.00002573,0.00000925,0.00001
 592,0.00000364,-0.00000695,-0.00000257,0.00000238,-0.00000291,0.000002
 98,-0.00000120,0.00000489,0.00000148,-0.00000238,-0.00000070,-0.000004
 19,-0.00000209,0.00000351,-0.00000532,-0.00000955,0.00000887,0.0000039
 3,-0.00000263,0.00000165,0.00000163,-0.00000084,0.00000208,-0.00000136
 ,0.00000078,0.00000111,-0.00000241,0.00000060,-0.00000149,-0.00000349,
 -0.00000157,-0.00000119,0.00000019,0.00000077,-0.00000043,-0.00000045,
 0.00000032,0.00000039,0.00000030,0.00000078,-0.00000001,0.00000679,0.0
 0000812,-0.00000278,-0.00000013,0.00000055,-0.00000468,0.00000070,0.00
 000089,-0.00000031,-0.00000127,0.00000058,-0.00000095,0.00000142,-0.00
 000090,0.00000017,-0.00000015,-0.00000071,-0.00000005,-0.00000227,0.00
 000041,0.00000134,0.00000035,0.00000523,-0.00000279,-0.00000082,-0.000
 00041,-0.00000049,-0.00000014,0.00000022,0.00000071,-0.00000003,0.0000
 0028,0.00000010,-0.00000084,0.00000031,0.00000045,0.00000064,-0.000000
 05,-0.00000011,-0.00000004,-0.00000040,-0.00000019,-0.00001158,0.00001
 706,0.00006376,0.00171860,-0.00256210,0.01606847,0.03283666,-0.0889603
 7,0.10394566,-0.00087958,0.00538218,-0.00537531,0.00363259,0.00555684,
 -0.00014878,0.00025125,-0.00067913,-0.00075228,0.00585645,0.00333141,0
 .00134714,-0.00202196,-0.00231654,-0.00113255,-0.03852574,0.08368556,-
 0.00000603,-0.00005747,-0.00009624,-0.00079853,0.00054588,-0.00057050,
 0.00032794,-0.00005964,-0.00016829,-0.00006246,-0.00004111,-0.00004345
 ,-0.00002340,0.00001983,0.00000557,0.00000026,-0.00002701,0.00001894,0
 .00001556,0.00000408,-0.00002096,0.00000770,0.00001668,0.00000352,-0.0
 0000847,0.00000142,-0.00002984,-0.00000755,-0.00000447,0.00000262,0.00
 001386,-0.00000010,-0.00000080,-0.00002213,0.00000680,0.00003525,0.000
 01004,-0.00000634,-0.00002830,-0.00001382,0.00000839,0.00000035,0.0000
 1582,-0.00000660,-0.00002015,0.00000509,-0.00000518,0.00001500,0.00001
 464,-0.00000118,-0.00001597,-0.00000013,0.00000191,-0.00000220,0.00000
 328,0.00000002,-0.00000328,0.00000230,-0.00000164,-0.00000018,0.000036
 17,0.00000309,-0.00000209,-0.00000703,-0.00001464,-0.00000544,0.000004
 19,0.00000236,-0.00001113,-0.00000265,0.00000320,0.00000160,-0.0000018
 9,-0.00000699,-0.00001342,-0.00000041,0.00000193,0.00000763,0.00001039
 ,-0.00000401,-0.00000496,0.00000462,-0.00000066,0.00000900,0.00000259,
 -0.00000006,0.00000186,0.00000192,-0.00000091,-0.00000399,0.00000187,-
 0.00000202,0.00000250,0.00000423,-0.00000059,-0.00000270,-0.00000247,0
 .00000033,-0.00000010,-0.00000256,0.00000120,-0.00000079,-0.00000321,0
 .00002668,0.00002307,0.00090053,0.00031555,0.00024711,-0.05020539,0.10
 389279,-0.28615406,-0.00721626,0.01050934,-0.01686843,0.00454202,-0.00
 010955,-0.00137151,0.00060489,-0.00068870,0.00033800,0.00015493,0.0014
 5758,0.00228025,-0.00089885,-0.00071497,0.00036969,0.05309837,-0.11376
 060,0.30169293,-0.00033072,-0.00047073,0.00092940,-0.00165340,-0.00158
 789,0.00088806,0.00024326,-0.00020387,-0.00089876,-0.00046362,0.000090
 21,0.00012021,0.00000860,-0.00002290,0.00000873,0.00017440,-0.00018513
 ,-0.00031593,0.00026606,0.00008285,0.00022730,-0.00000006,0.00001797,-
 0.00000401,0.00000629,-0.00007472,0.00003771,0.00000007,-0.00000254,0.
 00000289,-0.00001526,0.00000656,-0.00000107,0.00000451,0.00003327,-0.0
 0000707,0.00001333,-0.00000296,0.00000317,-0.00000388,-0.00000325,0.00
 000230,-0.00000393,0.00000200,-0.00000239,0.00000255,-0.00000739,-0.00
 000468,-0.00000470,0.00000627,0.00000277,0.00000099,0.00000141,-0.0000
 0081,0.00000049,0.00000087,-0.00000100,0.00000029,0.00000083,-0.000000
 47,0.00001821,0.00002197,-0.00002211,-0.00000537,-0.00000434,-0.000015
 95,0.00000354,0.00000312,-0.00000471,0.00000365,-0.00000007,0.00000586
 ,0.00000743,-0.00000067,-0.00000716,-0.00000205,-0.00000394,0.00000021
 ,0.00000137,-0.00000401,-0.00000156,-0.00001493,0.00000138,-0.00000762
 ,-0.00000068,-0.00000113,0.00000025,0.00000027,0.00000004,-0.00000120,
 0.00000067,0.00000036,0.00000132,0.00000069,0.00000015,-0.00000021,-0.
 00000017,-0.00000069,0.00000003,-0.00000080,0.00000058,-0.00000062,-0.
 00052738,-0.00042271,0.00112391,0.00134185,0.00273343,0.00464589,-0.01
 151428,0.01082014,-0.00454837,-0.23712993,0.14005402,-0.02777704,-0.00
 209441,0.00402008,-0.00038040,0.00269728,0.00237618,-0.00044807,0.0003
 3931,-0.00060267,0.00005497,-0.00060624,0.00056339,-0.00024191,-0.0005
 3997,-0.00225278,-0.00042028,0.25030165,0.00045983,0.00025396,0.000961
 20,-0.00193111,-0.00211574,-0.00085336,0.00012091,0.00012439,-0.000516
 34,-0.00029094,0.00014194,-0.00001552,-0.00002811,-0.00007384,-0.00008
 238,-0.00029547,-0.00009285,-0.00054591,0.00019199,-0.00005100,0.00011
 423,-0.00000847,0.00003660,-0.00000545,-0.00001874,-0.00000232,0.00005
 196,-0.00000180,-0.00001005,-0.00000399,0.00000871,0.00000229,0.000009
 68,-0.00004738,0.00000957,-0.00003659,0.00001442,-0.00001768,0.0000190
 0,-0.00000656,-0.00000069,-0.00000488,-0.00000212,0.00000078,-0.000001
 45,-0.00000356,0.00000103,-0.00000516,0.00001342,0.00000218,-0.0000081
 5,0.00000185,0.00000221,-0.00000177,0.00000168,0.00000068,-0.00000351,
 0.00000058,-0.00000060,-0.00000107,0.00000715,-0.00006082,0.00000335,-
 0.00001337,-0.00000728,-0.00000220,0.00000220,-0.00000023,-0.00000759,
 -0.00000639,0.00000507,-0.00000979,-0.00000415,-0.00000375,-0.00003979
 ,0.00000116,0.00000084,0.00000342,0.00000477,-0.00000705,-0.00000474,-
 0.00002819,0.00002047,-0.00000974,-0.00000225,-0.00000248,0.00000146,0
 .00000088,-0.00000050,-0.00000401,0.00000019,0.00000177,0.00000261,0.0
 0000165,0.00000017,-0.00000200,-0.00000049,0.00000066,-0.00000120,-0.0
 0000184,-0.00000005,-0.00000217,-0.00086570,-0.00018204,0.00022616,0.0
 0300208,0.00552859,0.00046489,0.00305882,0.00085133,0.00194589,0.14055
 323,-0.13824948,0.02563417,0.01107435,-0.00294571,-0.00053990,0.002007
 49,0.00401523,0.00353882,-0.00056863,-0.00026882,-0.00016941,0.0001534
 9,-0.00004239,0.00014497,-0.00198677,-0.00253339,-0.00109914,-0.154700
 11,0.13657940,0.00004368,-0.00002362,-0.00019205,-0.00160565,-0.000521
 41,0.00135752,0.00007401,-0.00014406,-0.00049436,-0.00037553,0.0000599
 2,0.00016034,0.00005044,0.00004882,0.00007072,0.00036298,-0.00029172,-
 0.00043683,0.00032005,0.00002944,0.00027155,-0.00001754,-0.00000944,-0
 .00001321,0.00002042,0.00002352,0.00000482,0.00001232,-0.00000612,-0.0
 0000265,-0.00002147,0.00000026,0.00001382,0.00006293,0.00002988,-0.000
 03100,-0.00001395,0.00000813,0.00000424,0.00001874,-0.00001109,0.00001
 019,-0.00002147,0.00000543,0.00001733,0.00000391,-0.00000334,-0.000018
 86,-0.00002555,0.00000565,0.00002957,-0.00000030,-0.00000119,0.0000037
 1,-0.00000388,0.00000203,0.00000636,-0.00000210,0.00000278,0.00000035,
 -0.00002013,0.00001588,-0.00000951,0.00002444,0.00002035,-0.00000481,-
 0.00000402,0.00000163,0.00001485,0.00001340,-0.00000685,0.00002017,0.0
 0001279,0.00000722,0.00002145,-0.00000330,-0.00000915,-0.00000984,-0.0
 0001792,0.00000647,0.00001404,0.00001672,0.00001234,0.00000455,-0.0000
 0194,0.00000063,-0.00000383,-0.00000235,0.00000131,0.00000730,-0.00000
 027,0.00000024,-0.00000395,-0.00000533,0.00000074,0.00000416,0.0000034
 6,-0.00000214,0.00000199,0.00000337,-0.00000061,0.00000230,0.00071763,
 0.00073504,-0.00036014,0.00397266,0.00063040,-0.00289339,0.02030778,-0
 .01439434,0.00753110,-0.02714509,0.02431197,-0.06224648,-0.02271264,0.
 01587781,0.00061377,-0.00003963,0.00323876,-0.00468779,0.00035239,-0.0
 0001488,-0.00138550,0.00103053,-0.00066437,0.00019312,-0.00109435,-0.0
 0072090,0.00062570,0.02716576,-0.02889633,0.06180560,-0.00074780,0.000
 08761,0.00033447,0.00041823,-0.00207075,-0.00210411,0.00022650,-0.0001
 3012,0.00003086,-0.00056457,-0.00009656,0.00050797,0.00018477,0.000607
 97,0.00021236,0.00006300,-0.00005428,-0.00056199,0.00042504,0.00003269
 ,0.00031450,-0.00000032,0.00002200,0.00001534,-0.00001452,0.00000815,-
 0.00001200,-0.00001090,-0.00000739,0.00000085,0.00001414,0.00000555,0.
 00000894,-0.00001638,0.00005675,0.00004544,0.00002162,-0.00000471,-0.0
 0002821,-0.00001911,0.00000152,0.00000824,0.00001066,-0.00000333,-0.00
 002500,0.00001011,-0.00000981,0.00001591,0.00000727,-0.00000065,-0.000
 00909,0.00000013,0.00000220,-0.00000237,0.00000449,0.00000025,-0.00000
 453,0.00000278,-0.00000099,-0.00000014,0.00002811,0.00000068,0.0000105
 9,-0.00001770,0.00000283,-0.00001552,0.00000828,-0.00000286,-0.0000180
 0,0.00000538,0.00001658,0.00000173,0.00000917,-0.00000633,-0.00002445,
 -0.00000152,-0.00000500,0.00001345,0.00001061,-0.00000135,-0.00000506,
 0.00001936,-0.00000740,0.00000963,0.00000201,-0.00000032,0.00000227,0.
 00000236,-0.00000110,-0.00000516,0.00000189,-0.00000174,0.00000321,0.0
 0000524,-0.00000084,-0.00000325,-0.00000257,0.00000135,0.00000031,-0.0
 0000374,0.00000014,-0.00000170,0.00006520,0.00001954,0.00002549,0.0002
 0064,0.00364709,0.00412264,-0.00123801,0.00020557,0.00058524,-0.002434
 22,0.00543072,0.00051970,-0.00121343,0.01032792,-0.02277372,-0.0644098
 6,0.03107597,-0.04723520,0.00798669,-0.00834667,0.01782984,0.00025070,
 -0.00033442,0.00091874,-0.00022841,-0.00054889,-0.00020398,-0.00014457
 ,0.00059876,-0.00127286,0.06158200,-0.00045830,0.00027768,0.00020944,-
 0.00180038,-0.00217520,-0.00090668,0.00120589,-0.00008580,0.00008363,-
 0.00053452,0.00000383,-0.00021951,0.00014937,-0.00079700,-0.00103720,-
 0.00006715,0.00008074,-0.00028870,0.00010900,-0.00002646,0.00013922,-0
 .00001142,-0.00001539,-0.00001478,-0.00000702,-0.00005082,0.00002949,0
 .00000637,0.00000094,-0.00000025,-0.00004480,0.00000527,0.00000426,-0.
 00003936,0.00000245,-0.00005385,-0.00000952,0.00000947,0.00001972,-0.0
 0000182,-0.00000047,-0.00000380,-0.00000513,0.00000254,0.00000395,-0.0
 0000904,0.00000027,-0.00001040,0.00001752,-0.00001846,0.00002065,-0.00
 000105,-0.00000041,0.00000157,-0.00000433,0.00000203,0.00000348,-0.000
 00165,0.00000374,0.00000173,0.00004236,-0.00004149,-0.00002465,0.00000
 523,0.00003824,-0.00001327,-0.00000765,-0.00000451,0.00001286,-0.00001
 606,0.00001146,-0.00003429,0.00000833,0.00000423,0.00000821,-0.0000053
 0,-0.00000825,-0.00000196,-0.00001044,0.00000396,0.00000587,-0.0000132
 7,0.00000782,-0.00000744,-0.00000322,0.00000036,-0.00000218,-0.0000021
 2,0.00000139,0.00000350,-0.00000167,0.00000108,-0.00000127,-0.00000544
 ,0.00000112,0.00000280,0.00000402,0.00000067,-0.00000077,0.00000136,-0
 .00000353,-0.00000143,-0.00011656,-0.00006530,0.00000435,0.00371519,0.
 00516799,0.00010857,-0.00001188,-0.00052455,-0.00047020,0.00554091,0.0
 0259419,0.00061577,0.00188070,-0.00222038,0.01679811,0.03225671,-0.091
 63827,0.10712919,-0.00075966,0.00568981,-0.00610973,0.00002581,0.00017
 448,-0.00030781,-0.00054769,-0.00078038,-0.00018704,0.00017803,-0.0000
 9532,0.00088862,-0.03846410,0.08700290,-0.00058937,0.00001442,0.000343
 15,0.00040549,-0.00118010,-0.00065463,0.00041880,-0.00074443,-0.000408
 76,-0.00005037,-0.00003513,0.00020479,0.00081659,-0.00082487,-0.000457
 53,0.00001981,-0.00004922,-0.00030507,0.00018120,0.00007624,0.00008876
 ,-0.00001585,-0.00000359,-0.00000195,-0.00000738,0.00004130,0.00001300
 ,0.00000021,-0.00000261,-0.00000114,0.00000078,0.00000022,0.00000585,0
 .00001445,0.00002072,-0.00000295,-0.00000028,0.00000381,-0.00000391,0.
 00000007,-0.00000514,0.00000412,-0.00000519,0.00000010,0.00000133,0.00
 000012,-0.00000083,-0.00000515,0.00000007,0.00000290,0.00001146,-0.000
 00012,0.00000030,0.00000056,-0.00000060,0.00000134,0.00000088,-0.00000
 057,0.00000106,0.00000044,0.00000655,-0.00007431,0.00002217,0.00000317
 ,0.00000994,0.00000251,-0.00000255,-0.00000148,0.00000466,-0.00000892,
 -0.00000654,-0.00000675,-0.00000775,0.00000401,-0.00001250,0.00000395,
 -0.00000031,-0.00000278,-0.00000356,0.00000461,0.00000355,0.00000471,-
 0.00000073,0.00000174,-0.00000060,0.00000055,-0.00000098,-0.00000015,0
 .00000043,0.00000115,-0.00000026,-0.00000050,-0.00000052,-0.00000132,0
 .00000038,0.00000061,0.00000143,-0.00000039,0.00000041,0.00000043,-0.0
 0000065,0.00000032,0.00001474,-0.00001419,0.00000561,0.00472215,-0.000
 32593,-0.00139153,0.00032791,-0.00047746,0.00044765,0.00016800,0.00112
 225,0.00186465,-0.00013564,0.00149368,-0.00099294,-0.04823593,0.107108
 00,-0.28157761,-0.00698820,0.01037020,-0.01680819,-0.00034278,0.000540
 90,-0.00088080,-0.00018024,-0.00018633,-0.00012944,0.00005320,-0.00000
 085,-0.00007370,0.04985912,-0.11571782,0.30010162,-0.00005512,0.000013
 99,0.00028729,-0.00046881,0.00042426,-0.00064434,-0.00009611,-0.000048
 79,0.00000470,0.00001517,-0.00001800,0.00000059,0.00004076,0.00000772,
 -0.00002675,-0.00004720,-0.00002683,-0.00004901,-0.00001619,0.00001204
 ,0.00001906,-0.00000874,-0.00001177,-0.00000138,0.00000727,0.00001161,
 0.00002798,0.00000670,-0.00000074,-0.00000214,-0.00001318,-0.00000311,
 0.00000299,0.00002700,-0.00001070,-0.00002809,-0.00001179,0.00000522,0
 .00001503,0.00001208,-0.00000812,0.00000247,-0.00001378,0.00000461,0.0
 0001829,-0.00000147,0.00000277,-0.00001395,-0.00002145,0.00000229,0.00
 001609,0.00000027,-0.00000021,0.00000202,-0.00000248,0.00000076,0.0000
 0320,-0.00000148,0.00000286,-0.00000014,-0.00002263,0.00000489,-0.0000
 0190,0.00000647,0.00001543,0.00000071,-0.00000230,-0.00000044,0.000009
 56,0.00000701,-0.00000011,0.00000174,0.00000260,0.00000170,0.00001028,
 -0.00000030,-0.00000605,-0.00000522,-0.00000816,0.00000536,0.00000483,
 0.00000114,0.00000223,-0.00000345,-0.00000119,0.00000061,-0.00000238,-
 0.00000137,0.00000091,0.00000419,-0.00000061,-0.00000020,-0.00000199,-
 0.00000319,0.00000058,0.00000259,0.00000236,-0.00000184,0.00000153,0.0
 0000196,-0.00000035,0.00000165,0.00000057,0.00000280,-0.00003209,-0.00
 157943,0.00280480,0.00090113,0.00343149,0.00277057,-0.00061030,0.00019
 048,-0.00072168,0.00047906,0.00129545,0.00295687,0.00436112,-0.0113813
 6,0.01076984,-0.00481407,-0.24353518,0.13907712,-0.02811917,-0.0006013
 2,-0.00190892,-0.00085319,-0.00018285,0.00014184,0.00012431,-0.0003803
 9,-0.00046743,-0.00018313,-0.00049877,-0.00218627,-0.00044534,0.253908
 05,0.00005610,-0.00011079,-0.00009813,0.00012059,0.00001360,0.00023324
 ,0.00003257,-0.00008704,-0.00007897,0.00001327,0.00003635,0.00000101,0
 .00005335,-0.00001557,-0.00002849,0.00001824,0.00001592,-0.00004506,0.
 00000168,0.00000357,0.00001019,-0.00000058,0.00000592,0.00000102,-0.00
 000121,0.00000592,-0.00000869,-0.00000250,-0.00000072,0.00000072,0.000
 00467,0.00000051,0.00000109,-0.00000389,-0.00001115,0.00000425,0.00000
 109,-0.00000373,-0.00000736,-0.00000530,0.00000381,-0.00000334,0.00000
 491,-0.00000255,-0.00000800,0.00000224,-0.00000107,0.00000586,0.000010
 55,-0.00000387,-0.00000012,0.00000006,0.00000073,-0.00000078,0.0000012
 2,0.00000032,-0.00000155,0.00000051,-0.00000020,0.00000016,0.00001684,
 -0.00000484,0.00000312,-0.00000637,-0.00000242,-0.00000418,0.00000185,
 -0.00000036,-0.00000620,-0.00000532,0.00000635,-0.00000203,0.00000087,
 -0.00000478,-0.00000857,-0.00000049,0.00000052,0.00000406,0.00000281,-
 0.00000109,-0.00000141,-0.00000159,0.00000004,0.00000013,-0.00000009,-
 0.00000058,0.00000082,0.00000070,-0.00000022,-0.00000229,0.00000019,0.
 00000028,0.00000136,0.00000145,-0.00000008,-0.00000117,-0.00000042,0.0
 0000103,-0.00000081,-0.00000145,-0.00000057,-0.00000134,-0.00001313,-0
 .00002684,-0.00001568,0.00963639,-0.00280790,-0.00052297,0.00284928,0.
 00457020,0.00356777,-0.00079015,-0.00026350,0.00009352,0.00279973,0.00
 586488,0.00036695,0.00372340,0.00031479,0.00184785,0.13916615,-0.13401
 571,0.02587585,-0.00206214,-0.00237774,-0.00078829,0.00050894,-0.00020
 356,-0.00001845,-0.00046062,-0.00081512,-0.00024371,-0.00205225,-0.002
 53670,-0.00116394,-0.15362213,0.13245397,0.00014095,-0.00007423,-0.000
 32347,0.00078218,-0.00053101,0.00065872,0.00002603,0.00003632,-0.00000
 929,-0.00000859,0.00002100,-0.00002054,-0.00000942,-0.00003891,-0.0000
 2011,0.00008054,0.00005951,0.00002941,0.,-0.00001056,-0.00000829,0.000
 00807,0.00000568,0.00000055,-0.00000115,-0.00000715,-0.00002763,-0.000
 00283,-0.00000069,0.00000063,0.00000514,0.00000176,0.00000039,-0.00001
 321,-0.00000075,0.00000918,0.00000318,-0.00000176,-0.00000476,-0.00000
 410,0.00000279,-0.00000166,0.00000584,-0.00000093,-0.00000732,-0.00000
 192,-0.00000118,0.00000437,0.00001365,-0.00000345,-0.00000401,0.,0.000
 00044,-0.00000180,0.00000031,-0.00000022,-0.00000091,0.00000121,-0.000
 00087,0.00000017,0.00002321,-0.00000706,0.00000123,-0.00000624,-0.0000
 0609,-0.00000446,0.00000180,0.00000003,-0.00000542,-0.00000807,0.00000
 103,-0.00000399,-0.00000193,-0.00000132,-0.00000715,0.00000093,0.00000
 365,0.00000235,0.00000335,-0.00000366,-0.00000296,-0.00000058,-0.00000
 002,0.00000207,-0.00000013,-0.00000035,0.00000063,0.00000046,-0.000000
 19,-0.00000105,0.,0.00000022,0.00000082,0.00000019,0.00000014,-0.00000
 076,-0.00000021,0.00000131,-0.00000116,-0.00000077,-0.00000076,-0.0000
 0125,0.00000087,-0.00001544,0.00001158,-0.02443443,0.01604492,0.001429
 50,0.00005135,0.00337139,-0.00460576,0.00033788,-0.00002278,-0.0014070
 3,0.00390609,0.00042832,-0.00296982,0.02050552,-0.01443468,0.00761413,
 -0.02837500,0.02552505,-0.06334366,-0.00009631,-0.00126373,0.00070642,
 -0.00121844,0.00080902,-0.00011240,-0.00016053,-0.00024743,0.00005728,
 -0.00109051,-0.00067997,0.00058785,0.02953563,-0.02895740,0.06177936\\
 -0.00000793,-0.00000047,0.00000614,0.00001192,-0.00000308,-0.00001441,
 -0.00000382,0.00000359,0.00000802,0.00000672,0.00000286,-0.00001214,-0
 .00000013,-0.00000287,-0.00000239,0.00000939,-0.00000737,-0.00000827,-
 0.00000277,0.00000081,0.00000371,0.00000407,0.00000659,-0.00000360,0.0
 0000020,0.00000181,0.00000344,-0.00000731,-0.00000874,0.00000119,0.000
 00297,0.00000532,-0.00000073,-0.00000252,0.00000067,0.00000319,0.00002
 107,-0.00000107,0.00000780,-0.00001488,0.00000505,0.00000161,-0.000002
 15,0.00000053,0.00000264,0.00000108,-0.00000124,0.00001572,-0.00001236
 ,-0.00000129,-0.00001878,0.00002033,0.00000346,0.00000986,-0.00000013,
 0.00000004,0.00000018,-0.00001498,-0.00000480,-0.00001657,-0.00000382,
 -0.00000085,0.00000092,0.00000115,-0.00000797,-0.00000289,0.00000711,0
 .00000262,0.00000170,0.00000296,0.00000179,0.00000171,-0.00000106,-0.0
 0000585,-0.00000157,0.00000244,0.00001008,0.00000487,-0.00000387,-0.00
 000354,-0.00000573,-0.00000269,-0.00000186,-0.00000196,-0.00000655,-0.
 00000421,0.00000014,-0.00000505,0.00000043,-0.00000269,-0.00000172,-0.
 00000224,-0.00000257,0.00000368,-0.00000003,0.00000442,0.00000331,0.00
 000175,0.00000059,0.00000231,0.00000530,0.00000516,0.00000294,0.000002
 08,-0.00000103,-0.00000185,0.00000050,0.00000231,-0.00000015,-0.000000
 86,-0.00000207,0.00000097,0.00000216,-0.00000223,-0.00000871,0.0000022
 6,0.00001078,0.00000144,-0.00000275,-0.00000078,0.00000213,0.00000031,
 -0.00000045,-0.00000011,0.00000004,0.00000012,-0.00000010,-0.00000119,
 0.00000168,-0.00000110,-0.00000156,0.00000184,-0.00000115,0.00000220,0
 .00000102,-0.00000130,0.00000158,0.00000012\\\@
 The archive entry for this job was punched.


 IF YOU GIVE A BOY AND A PIG EVERYTHING THEY WANT,
 YOU'LL GET A BAD BOY AND A GOOD PIG.
 Job cpu time:       8 days 18 hours 18 minutes 38.5 seconds.
 Elapsed time:       0 days  6 hours 37 minutes 33.4 seconds.
 File lengths (MBytes):  RWF=   4413 Int=      0 D2E=      0 Chk=     62 Scr=      1
 Normal termination of Gaussian 16 at Tue Nov 28 15:18:12 2023.
