 Entering Gaussian System, Link 0=g16
 Input=ph_2triphenylene_2_1_m062x.com
 Output=ph_2triphenylene_2_1_m062x.log
 Initial command:
 /arc/software/Gaussian/g16.c01/l1.exe "/tmp/slurm/147924/Gau-259705.inp" -scrdir="/tmp/slurm/147924/"
 Entering Link 1 = /arc/software/Gaussian/g16.c01/l1.exe PID=    259706.
  
 Copyright (c) 1988-2019, Gaussian, Inc.  All Rights Reserved.
  
 This is part of the Gaussian(R) 16 program.  It is based on
 the Gaussian(R) 09 system (copyright 2009, Gaussian, Inc.),
 the Gaussian(R) 03 system (copyright 2003, Gaussian, Inc.),
 the Gaussian(R) 98 system (copyright 1998, Gaussian, Inc.),
 the Gaussian(R) 94 system (copyright 1995, Gaussian, Inc.),
 the Gaussian 92(TM) system (copyright 1992, Gaussian, Inc.),
 the Gaussian 90(TM) system (copyright 1990, Gaussian, Inc.),
 the Gaussian 88(TM) system (copyright 1988, Gaussian, Inc.),
 the Gaussian 86(TM) system (copyright 1986, Carnegie Mellon
 University), and the Gaussian 82(TM) system (copyright 1983,
 Carnegie Mellon University). Gaussian is a federally registered
 trademark of Gaussian, Inc.
  
 This software contains proprietary and confidential information,
 including trade secrets, belonging to Gaussian, Inc.
  
 This software is provided under written license and may be
 used, copied, transmitted, or stored only in accord with that
 written license.
  
 The following legend is applicable only to US Government
 contracts under FAR:
  
                    RESTRICTED RIGHTS LEGEND
  
 Use, reproduction and disclosure by the US Government is
 subject to restrictions as set forth in subparagraphs (a)
 and (c) of the Commercial Computer Software - Restricted
 Rights clause in FAR 52.227-19.
  
 Gaussian, Inc.
 340 Quinnipiac St., Bldg. 40, Wallingford CT 06492
  
  
 ---------------------------------------------------------------
 Warning -- This program may not be used in any manner that
 competes with the business of Gaussian, Inc. or will provide
 assistance to any competitor of Gaussian, Inc.  The licensee
 of this program is prohibited from giving any competitor of
 Gaussian, Inc. access to this program.  By using this program,
 the user acknowledges that Gaussian, Inc. is engaged in the
 business of creating and licensing software in the field of
 computational chemistry and represents and warrants to the
 licensee that it is not a competitor of Gaussian, Inc. and that
 it will not use this program in any manner prohibited above.
 ---------------------------------------------------------------
  

 Cite this work as:
 Gaussian 16, Revision C.01,
 M. J. Frisch, G. W. Trucks, H. B. Schlegel, G. E. Scuseria, 
 M. A. Robb, J. R. Cheeseman, G. Scalmani, V. Barone, 
 G. A. Petersson, H. Nakatsuji, X. Li, M. Caricato, A. V. Marenich, 
 J. Bloino, B. G. Janesko, R. Gomperts, B. Mennucci, H. P. Hratchian, 
 J. V. Ortiz, A. F. Izmaylov, J. L. Sonnenberg, D. Williams-Young, 
 F. Ding, F. Lipparini, F. Egidi, J. Goings, B. Peng, A. Petrone, 
 T. Henderson, D. Ranasinghe, V. G. Zakrzewski, J. Gao, N. Rega, 
 G. Zheng, W. Liang, M. Hada, M. Ehara, K. Toyota, R. Fukuda, 
 J. Hasegawa, M. Ishida, T. Nakajima, Y. Honda, O. Kitao, H. Nakai, 
 T. Vreven, K. Throssell, J. A. Montgomery, Jr., J. E. Peralta, 
 F. Ogliaro, M. J. Bearpark, J. J. Heyd, E. N. Brothers, K. N. Kudin, 
 V. N. Staroverov, T. A. Keith, R. Kobayashi, J. Normand, 
 K. Raghavachari, A. P. Rendell, J. C. Burant, S. S. Iyengar, 
 J. Tomasi, M. Cossi, J. M. Millam, M. Klene, C. Adamo, R. Cammi, 
 J. W. Ochterski, R. L. Martin, K. Morokuma, O. Farkas, 
 J. B. Foresman, and D. J. Fox, Gaussian, Inc., Wallingford CT, 2019.
 
 ******************************************
 Gaussian 16:  ES64L-G16RevC.01  3-Jul-2019
                28-Nov-2023 
 ******************************************
 %nprocshared=32
 Will use up to   32 processors via shared memory.
 %mem=8000MB
 %chk=ph_2triphenylene_2_1_m062x.chk
 -----------------------------------------
 # opt freq=noraman m062x def2tzvp pop=nbo
 -----------------------------------------
 1/18=20,19=15,26=3,38=1/1,3;
 2/9=110,12=2,17=6,18=5,40=1/2;
 3/5=44,7=101,11=2,25=1,30=1,71=1,74=-55/1,2,3;
 4//1;
 5/5=2,38=5/2;
 6/7=2,8=2,9=2,10=2,28=1,40=1/1,7;
 7//1,2,3,16;
 1/18=20,19=15,26=3/3(2);
 2/9=110/2;
 99//99;
 2/9=110/2;
 3/5=44,7=101,11=2,25=1,30=1,71=1,74=-55/1,2,3;
 4/5=5,16=3,69=1/1;
 5/5=2,38=5/2;
 7//1,2,3,16;
 1/18=20,19=15,26=3/3(-5);
 2/9=110/2;
 6/7=2,8=2,9=2,10=2,19=2,28=1,40=1/1,7;
 99/9=1/99;
 ----------
 Structure1
 ----------
 Symbolic Z-matrix:
 Charge =  0 Multiplicity = 1
 C                    -1.9316   -3.302    -0.0275 
 C                    -0.7294   -3.781    -0.5425 
 C                     0.3726   -3.9886    0.2959 
 C                     0.2497   -3.706     1.6618 
 C                    -0.9501   -3.2256    2.1811 
 C                    -2.0366   -3.026     1.3334 
 C                     1.6564   -4.5016   -0.2567 
 C                     2.204    -3.9452   -1.4053 
 H                     1.0929   -3.8493    2.322 
 H                    -1.0356   -3.0067    3.2357 
 H                    -2.9684   -2.6536    1.7345 
 C                     2.3332   -5.5485    0.3677 
 C                     3.4021   -4.4099   -1.9304 
 H                     3.76     -3.9224   -2.8196 
 H                     1.6961   -3.1271   -1.8956 
 H                     1.8704   -5.9599    1.2461 
 C                     3.5719   -6.0684   -0.1316 
 C                     4.122    -5.4813   -1.3134 
 C                     5.4905   -7.6276   -0.0173 
 C                     4.2539   -7.141     0.5156 
 C                     3.7379   -7.7607    1.7009 
 C                     4.4086   -8.8041    2.325 
 C                     5.6032   -9.2735    1.8103 
 C                     6.1437   -8.7062    0.6641 
 H                     2.8144   -7.4452    2.1525 
 H                     3.9967   -9.2536    3.2173 
 H                     6.1164   -10.0862   2.3043 
 H                     7.0743   -9.1176    0.3159 
 C                     5.3536   -5.9651   -1.8449 
 C                     6.0395   -7.0404   -1.1952 
 C                     7.2745   -7.4961   -1.7623 
 C                     7.8023   -6.9193   -2.9098 
 C                     7.1395   -5.8804   -3.5375 
 C                     5.9397   -5.4038   -3.0264 
 H                     7.839    -8.2994   -1.3235 
 H                     8.7355   -7.2822   -3.3165 
 H                     7.5597   -5.439    -4.43 
 H                     5.4755   -4.5945   -3.5613 
 H                    -2.7783   -3.1478   -0.6807 
 H                    -0.6558   -4.0026   -1.5974 
 

 GradGradGradGradGradGradGradGradGradGradGradGradGradGradGradGradGradGrad
 Berny optimization.
 Initialization pass.
                           ----------------------------
                           !    Initial Parameters    !
                           ! (Angstroms and Degrees)  !
 --------------------------                            --------------------------
 ! Name  Definition              Value          Derivative Info.                !
 --------------------------------------------------------------------------------
 ! R1    R(1,2)                  1.3928         estimate D2E/DX2                !
 ! R2    R(1,6)                  1.3926         estimate D2E/DX2                !
 ! R3    R(1,39)                 1.0804         estimate D2E/DX2                !
 ! R4    R(2,3)                  1.4001         estimate D2E/DX2                !
 ! R5    R(2,40)                 1.0804         estimate D2E/DX2                !
 ! R6    R(3,4)                  1.4002         estimate D2E/DX2                !
 ! R7    R(3,7)                  1.4889         estimate D2E/DX2                !
 ! R8    R(4,5)                  1.3928         estimate D2E/DX2                !
 ! R9    R(4,9)                  1.0805         estimate D2E/DX2                !
 ! R10   R(5,6)                  1.3925         estimate D2E/DX2                !
 ! R11   R(5,10)                 1.0805         estimate D2E/DX2                !
 ! R12   R(6,11)                 1.0807         estimate D2E/DX2                !
 ! R13   R(7,8)                  1.3888         estimate D2E/DX2                !
 ! R14   R(7,12)                 1.3943         estimate D2E/DX2                !
 ! R15   R(8,13)                 1.3882         estimate D2E/DX2                !
 ! R16   R(8,15)                 1.0806         estimate D2E/DX2                !
 ! R17   R(12,16)                1.0747         estimate D2E/DX2                !
 ! R18   R(12,17)                1.4332         estimate D2E/DX2                !
 ! R19   R(13,14)                1.0754         estimate D2E/DX2                !
 ! R20   R(13,18)                1.4307         estimate D2E/DX2                !
 ! R21   R(17,18)                1.4297         estimate D2E/DX2                !
 ! R22   R(17,20)                1.4263         estimate D2E/DX2                !
 ! R23   R(18,29)                1.426          estimate D2E/DX2                !
 ! R24   R(19,20)                1.4318         estimate D2E/DX2                !
 ! R25   R(19,24)                1.4333         estimate D2E/DX2                !
 ! R26   R(19,30)                1.4261         estimate D2E/DX2                !
 ! R27   R(20,21)                1.4336         estimate D2E/DX2                !
 ! R28   R(21,22)                1.3885         estimate D2E/DX2                !
 ! R29   R(21,25)                1.0753         estimate D2E/DX2                !
 ! R30   R(22,23)                1.3829         estimate D2E/DX2                !
 ! R31   R(22,26)                1.0807         estimate D2E/DX2                !
 ! R32   R(23,24)                1.3884         estimate D2E/DX2                !
 ! R33   R(23,27)                1.0807         estimate D2E/DX2                !
 ! R34   R(24,28)                1.0754         estimate D2E/DX2                !
 ! R35   R(29,30)                1.4314         estimate D2E/DX2                !
 ! R36   R(29,34)                1.4334         estimate D2E/DX2                !
 ! R37   R(30,31)                1.4333         estimate D2E/DX2                !
 ! R38   R(31,32)                1.3885         estimate D2E/DX2                !
 ! R39   R(31,35)                1.0754         estimate D2E/DX2                !
 ! R40   R(32,33)                1.383          estimate D2E/DX2                !
 ! R41   R(32,36)                1.0807         estimate D2E/DX2                !
 ! R42   R(33,34)                1.3885         estimate D2E/DX2                !
 ! R43   R(33,37)                1.0807         estimate D2E/DX2                !
 ! R44   R(34,38)                1.0754         estimate D2E/DX2                !
 ! A1    A(2,1,6)              119.6424         estimate D2E/DX2                !
 ! A2    A(2,1,39)             120.1292         estimate D2E/DX2                !
 ! A3    A(6,1,39)             120.2282         estimate D2E/DX2                !
 ! A4    A(1,2,3)              120.5924         estimate D2E/DX2                !
 ! A5    A(1,2,40)             119.3635         estimate D2E/DX2                !
 ! A6    A(3,2,40)             120.0408         estimate D2E/DX2                !
 ! A7    A(2,3,4)              119.0194         estimate D2E/DX2                !
 ! A8    A(2,3,7)              120.4976         estimate D2E/DX2                !
 ! A9    A(4,3,7)              120.4829         estimate D2E/DX2                !
 ! A10   A(3,4,5)              120.5915         estimate D2E/DX2                !
 ! A11   A(3,4,9)              120.0523         estimate D2E/DX2                !
 ! A12   A(5,4,9)              119.3525         estimate D2E/DX2                !
 ! A13   A(4,5,6)              119.6437         estimate D2E/DX2                !
 ! A14   A(4,5,10)             120.1295         estimate D2E/DX2                !
 ! A15   A(6,5,10)             120.2266         estimate D2E/DX2                !
 ! A16   A(1,6,5)              120.5104         estimate D2E/DX2                !
 ! A17   A(1,6,11)             119.7381         estimate D2E/DX2                !
 ! A18   A(5,6,11)             119.7515         estimate D2E/DX2                !
 ! A19   A(3,7,8)              120.5919         estimate D2E/DX2                !
 ! A20   A(3,7,12)             120.735          estimate D2E/DX2                !
 ! A21   A(8,7,12)             118.673          estimate D2E/DX2                !
 ! A22   A(7,8,13)             121.2672         estimate D2E/DX2                !
 ! A23   A(7,8,15)             119.5548         estimate D2E/DX2                !
 ! A24   A(13,8,15)            119.1741         estimate D2E/DX2                !
 ! A25   A(7,12,16)            116.3868         estimate D2E/DX2                !
 ! A26   A(7,12,17)            122.4063         estimate D2E/DX2                !
 ! A27   A(16,12,17)           121.2033         estimate D2E/DX2                !
 ! A28   A(8,13,14)            116.632          estimate D2E/DX2                !
 ! A29   A(8,13,18)            121.4554         estimate D2E/DX2                !
 ! A30   A(14,13,18)           121.9124         estimate D2E/DX2                !
 ! A31   A(12,17,18)           118.137          estimate D2E/DX2                !
 ! A32   A(12,17,20)           121.869          estimate D2E/DX2                !
 ! A33   A(18,17,20)           119.994          estimate D2E/DX2                !
 ! A34   A(13,18,17)           118.0609         estimate D2E/DX2                !
 ! A35   A(13,18,29)           121.8658         estimate D2E/DX2                !
 ! A36   A(17,18,29)           120.0733         estimate D2E/DX2                !
 ! A37   A(20,19,24)           118.1915         estimate D2E/DX2                !
 ! A38   A(20,19,30)           119.9992         estimate D2E/DX2                !
 ! A39   A(24,19,30)           121.8093         estimate D2E/DX2                !
 ! A40   A(17,20,19)           119.9774         estimate D2E/DX2                !
 ! A41   A(17,20,21)           121.8784         estimate D2E/DX2                !
 ! A42   A(19,20,21)           118.1442         estimate D2E/DX2                !
 ! A43   A(20,21,22)           121.5058         estimate D2E/DX2                !
 ! A44   A(20,21,25)           121.9724         estimate D2E/DX2                !
 ! A45   A(22,21,25)           116.5218         estimate D2E/DX2                !
 ! A46   A(21,22,23)           120.3344         estimate D2E/DX2                !
 ! A47   A(21,22,26)           119.9708         estimate D2E/DX2                !
 ! A48   A(23,22,26)           119.6948         estimate D2E/DX2                !
 ! A49   A(22,23,24)           120.3221         estimate D2E/DX2                !
 ! A50   A(22,23,27)           119.6934         estimate D2E/DX2                !
 ! A51   A(24,23,27)           119.9846         estimate D2E/DX2                !
 ! A52   A(19,24,23)           121.5021         estimate D2E/DX2                !
 ! A53   A(19,24,28)           121.8917         estimate D2E/DX2                !
 ! A54   A(23,24,28)           116.6062         estimate D2E/DX2                !
 ! A55   A(18,29,30)           119.9714         estimate D2E/DX2                !
 ! A56   A(18,29,34)           121.8393         estimate D2E/DX2                !
 ! A57   A(30,29,34)           118.1892         estimate D2E/DX2                !
 ! A58   A(19,30,29)           119.9845         estimate D2E/DX2                !
 ! A59   A(19,30,31)           121.8427         estimate D2E/DX2                !
 ! A60   A(29,30,31)           118.1728         estimate D2E/DX2                !
 ! A61   A(30,31,32)           121.4942         estimate D2E/DX2                !
 ! A62   A(30,31,35)           121.8924         estimate D2E/DX2                !
 ! A63   A(32,31,35)           116.6134         estimate D2E/DX2                !
 ! A64   A(31,32,33)           120.3293         estimate D2E/DX2                !
 ! A65   A(31,32,36)           119.9823         estimate D2E/DX2                !
 ! A66   A(33,32,36)           119.6883         estimate D2E/DX2                !
 ! A67   A(32,33,34)           120.3254         estimate D2E/DX2                !
 ! A68   A(32,33,37)           119.6897         estimate D2E/DX2                !
 ! A69   A(34,33,37)           119.985          estimate D2E/DX2                !
 ! A70   A(29,34,33)           121.4891         estimate D2E/DX2                !
 ! A71   A(29,34,38)           121.8823         estimate D2E/DX2                !
 ! A72   A(33,34,38)           116.6286         estimate D2E/DX2                !
 ! D1    D(6,1,2,3)              0.0767         estimate D2E/DX2                !
 ! D2    D(6,1,2,40)           179.4193         estimate D2E/DX2                !
 ! D3    D(39,1,2,3)          -179.7865         estimate D2E/DX2                !
 ! D4    D(39,1,2,40)           -0.4439         estimate D2E/DX2                !
 ! D5    D(2,1,6,5)             -0.0165         estimate D2E/DX2                !
 ! D6    D(2,1,6,11)           179.9546         estimate D2E/DX2                !
 ! D7    D(39,1,6,5)           179.8466         estimate D2E/DX2                !
 ! D8    D(39,1,6,11)           -0.1824         estimate D2E/DX2                !
 ! D9    D(1,2,3,4)             -0.0731         estimate D2E/DX2                !
 ! D10   D(1,2,3,7)            179.9572         estimate D2E/DX2                !
 ! D11   D(40,2,3,4)          -179.4113         estimate D2E/DX2                !
 ! D12   D(40,2,3,7)             0.619          estimate D2E/DX2                !
 ! D13   D(2,3,4,5)              0.0098         estimate D2E/DX2                !
 ! D14   D(2,3,4,9)           -179.2975         estimate D2E/DX2                !
 ! D15   D(7,3,4,5)            179.9795         estimate D2E/DX2                !
 ! D16   D(7,3,4,9)              0.6721         estimate D2E/DX2                !
 ! D17   D(2,3,7,8)             47.345          estimate D2E/DX2                !
 ! D18   D(2,3,7,12)          -132.6918         estimate D2E/DX2                !
 ! D19   D(4,3,7,8)           -132.6242         estimate D2E/DX2                !
 ! D20   D(4,3,7,12)            47.339          estimate D2E/DX2                !
 ! D21   D(3,4,5,6)              0.0493         estimate D2E/DX2                !
 ! D22   D(3,4,5,10)          -179.7846         estimate D2E/DX2                !
 ! D23   D(9,4,5,6)            179.3614         estimate D2E/DX2                !
 ! D24   D(9,4,5,10)            -0.4725         estimate D2E/DX2                !
 ! D25   D(4,5,6,1)             -0.0461         estimate D2E/DX2                !
 ! D26   D(4,5,6,11)           179.9829         estimate D2E/DX2                !
 ! D27   D(10,5,6,1)           179.7877         estimate D2E/DX2                !
 ! D28   D(10,5,6,11)           -0.1834         estimate D2E/DX2                !
 ! D29   D(3,7,8,13)           179.8066         estimate D2E/DX2                !
 ! D30   D(3,7,8,15)             0.5273         estimate D2E/DX2                !
 ! D31   D(12,7,8,13)           -0.1573         estimate D2E/DX2                !
 ! D32   D(12,7,8,15)         -179.4367         estimate D2E/DX2                !
 ! D33   D(3,7,12,16)            0.8013         estimate D2E/DX2                !
 ! D34   D(3,7,12,17)         -179.8811         estimate D2E/DX2                !
 ! D35   D(8,7,12,16)         -179.2348         estimate D2E/DX2                !
 ! D36   D(8,7,12,17)            0.0828         estimate D2E/DX2                !
 ! D37   D(7,8,13,14)         -179.7378         estimate D2E/DX2                !
 ! D38   D(7,8,13,18)            0.0976         estimate D2E/DX2                !
 ! D39   D(15,8,13,14)          -0.4557         estimate D2E/DX2                !
 ! D40   D(15,8,13,18)         179.3796         estimate D2E/DX2                !
 ! D41   D(7,12,17,18)           0.051          estimate D2E/DX2                !
 ! D42   D(7,12,17,20)        -179.9268         estimate D2E/DX2                !
 ! D43   D(16,12,17,18)        179.3363         estimate D2E/DX2                !
 ! D44   D(16,12,17,20)         -0.6415         estimate D2E/DX2                !
 ! D45   D(8,13,18,17)           0.0399         estimate D2E/DX2                !
 ! D46   D(8,13,18,29)        -179.971          estimate D2E/DX2                !
 ! D47   D(14,13,18,17)        179.8665         estimate D2E/DX2                !
 ! D48   D(14,13,18,29)         -0.1444         estimate D2E/DX2                !
 ! D49   D(12,17,18,13)         -0.1099         estimate D2E/DX2                !
 ! D50   D(12,17,18,29)        179.9008         estimate D2E/DX2                !
 ! D51   D(20,17,18,13)        179.8683         estimate D2E/DX2                !
 ! D52   D(20,17,18,29)         -0.121          estimate D2E/DX2                !
 ! D53   D(12,17,20,19)       -179.9075         estimate D2E/DX2                !
 ! D54   D(12,17,20,21)          0.0879         estimate D2E/DX2                !
 ! D55   D(18,17,20,19)          0.1151         estimate D2E/DX2                !
 ! D56   D(18,17,20,21)       -179.8895         estimate D2E/DX2                !
 ! D57   D(13,18,29,30)       -179.9412         estimate D2E/DX2                !
 ! D58   D(13,18,29,34)          0.0672         estimate D2E/DX2                !
 ! D59   D(17,18,29,30)          0.0477         estimate D2E/DX2                !
 ! D60   D(17,18,29,34)       -179.9439         estimate D2E/DX2                !
 ! D61   D(24,19,20,17)        179.9616         estimate D2E/DX2                !
 ! D62   D(24,19,20,21)         -0.034          estimate D2E/DX2                !
 ! D63   D(30,19,20,17)         -0.0362         estimate D2E/DX2                !
 ! D64   D(30,19,20,21)        179.9682         estimate D2E/DX2                !
 ! D65   D(20,19,24,23)          0.0239         estimate D2E/DX2                !
 ! D66   D(20,19,24,28)        179.9945         estimate D2E/DX2                !
 ! D67   D(30,19,24,23)       -179.9784         estimate D2E/DX2                !
 ! D68   D(30,19,24,28)         -0.0077         estimate D2E/DX2                !
 ! D69   D(20,19,30,29)         -0.037          estimate D2E/DX2                !
 ! D70   D(20,19,30,31)        179.9845         estimate D2E/DX2                !
 ! D71   D(24,19,30,29)        179.9653         estimate D2E/DX2                !
 ! D72   D(24,19,30,31)         -0.0132         estimate D2E/DX2                !
 ! D73   D(17,20,21,22)       -179.9729         estimate D2E/DX2                !
 ! D74   D(17,20,21,25)          0.0903         estimate D2E/DX2                !
 ! D75   D(19,20,21,22)          0.0226         estimate D2E/DX2                !
 ! D76   D(19,20,21,25)       -179.9142         estimate D2E/DX2                !
 ! D77   D(20,21,22,23)          0.0008         estimate D2E/DX2                !
 ! D78   D(20,21,22,26)       -179.9665         estimate D2E/DX2                !
 ! D79   D(25,21,22,23)        179.941          estimate D2E/DX2                !
 ! D80   D(25,21,22,26)         -0.0263         estimate D2E/DX2                !
 ! D81   D(21,22,23,24)         -0.0122         estimate D2E/DX2                !
 ! D82   D(21,22,23,27)       -179.9894         estimate D2E/DX2                !
 ! D83   D(26,22,23,24)        179.9551         estimate D2E/DX2                !
 ! D84   D(26,22,23,27)         -0.022          estimate D2E/DX2                !
 ! D85   D(22,23,24,19)         -0.0004         estimate D2E/DX2                !
 ! D86   D(22,23,24,28)       -179.9725         estimate D2E/DX2                !
 ! D87   D(27,23,24,19)        179.9766         estimate D2E/DX2                !
 ! D88   D(27,23,24,28)          0.0045         estimate D2E/DX2                !
 ! D89   D(18,29,30,19)          0.0312         estimate D2E/DX2                !
 ! D90   D(18,29,30,31)       -179.9895         estimate D2E/DX2                !
 ! D91   D(34,29,30,19)       -179.9769         estimate D2E/DX2                !
 ! D92   D(34,29,30,31)          0.0024         estimate D2E/DX2                !
 ! D93   D(18,29,34,33)        179.9873         estimate D2E/DX2                !
 ! D94   D(18,29,34,38)          0.0094         estimate D2E/DX2                !
 ! D95   D(30,29,34,33)         -0.0045         estimate D2E/DX2                !
 ! D96   D(30,29,34,38)       -179.9824         estimate D2E/DX2                !
 ! D97   D(19,30,31,32)        179.9811         estimate D2E/DX2                !
 ! D98   D(19,30,31,35)         -0.0184         estimate D2E/DX2                !
 ! D99   D(29,30,31,32)          0.0023         estimate D2E/DX2                !
 ! D100  D(29,30,31,35)       -179.9973         estimate D2E/DX2                !
 ! D101  D(30,31,32,33)         -0.005          estimate D2E/DX2                !
 ! D102  D(30,31,32,36)        179.9985         estimate D2E/DX2                !
 ! D103  D(35,31,32,33)        179.9946         estimate D2E/DX2                !
 ! D104  D(35,31,32,36)         -0.0019         estimate D2E/DX2                !
 ! D105  D(31,32,33,34)          0.0028         estimate D2E/DX2                !
 ! D106  D(31,32,33,37)        179.9942         estimate D2E/DX2                !
 ! D107  D(36,32,33,34)        179.9993         estimate D2E/DX2                !
 ! D108  D(36,32,33,37)         -0.0093         estimate D2E/DX2                !
 ! D109  D(32,33,34,29)          0.0019         estimate D2E/DX2                !
 ! D110  D(32,33,34,38)        179.9809         estimate D2E/DX2                !
 ! D111  D(37,33,34,29)       -179.9894         estimate D2E/DX2                !
 ! D112  D(37,33,34,38)         -0.0104         estimate D2E/DX2                !
 --------------------------------------------------------------------------------
 Trust Radius=3.00D-01 FncErr=1.00D-07 GrdErr=1.00D-06 EigMax=2.50D+02 EigMin=1.00D-04
 Number of steps in this run=    238 maximum allowed number of steps=    240.
 GradGradGradGradGradGradGradGradGradGradGradGradGradGradGradGradGradGrad

                          Input orientation:                          
 ---------------------------------------------------------------------
 Center     Atomic      Atomic             Coordinates (Angstroms)
 Number     Number       Type             X           Y           Z
 ---------------------------------------------------------------------
      1          6           0       -1.931600   -3.302000   -0.027500
      2          6           0       -0.729400   -3.781000   -0.542500
      3          6           0        0.372600   -3.988600    0.295900
      4          6           0        0.249700   -3.706000    1.661800
      5          6           0       -0.950100   -3.225600    2.181100
      6          6           0       -2.036600   -3.026000    1.333400
      7          6           0        1.656400   -4.501600   -0.256700
      8          6           0        2.204000   -3.945200   -1.405300
      9          1           0        1.092900   -3.849300    2.322000
     10          1           0       -1.035600   -3.006700    3.235700
     11          1           0       -2.968400   -2.653600    1.734500
     12          6           0        2.333200   -5.548500    0.367700
     13          6           0        3.402100   -4.409900   -1.930400
     14          1           0        3.760000   -3.922400   -2.819600
     15          1           0        1.696100   -3.127100   -1.895600
     16          1           0        1.870400   -5.959900    1.246100
     17          6           0        3.571900   -6.068400   -0.131600
     18          6           0        4.122000   -5.481300   -1.313400
     19          6           0        5.490500   -7.627600   -0.017300
     20          6           0        4.253900   -7.141000    0.515600
     21          6           0        3.737900   -7.760700    1.700900
     22          6           0        4.408600   -8.804100    2.325000
     23          6           0        5.603200   -9.273500    1.810300
     24          6           0        6.143700   -8.706200    0.664100
     25          1           0        2.814400   -7.445200    2.152500
     26          1           0        3.996700   -9.253600    3.217300
     27          1           0        6.116400  -10.086200    2.304300
     28          1           0        7.074300   -9.117600    0.315900
     29          6           0        5.353600   -5.965100   -1.844900
     30          6           0        6.039500   -7.040400   -1.195200
     31          6           0        7.274500   -7.496100   -1.762300
     32          6           0        7.802300   -6.919300   -2.909800
     33          6           0        7.139500   -5.880400   -3.537500
     34          6           0        5.939700   -5.403800   -3.026400
     35          1           0        7.839000   -8.299400   -1.323500
     36          1           0        8.735500   -7.282200   -3.316500
     37          1           0        7.559700   -5.439000   -4.430000
     38          1           0        5.475500   -4.594500   -3.561300
     39          1           0       -2.778300   -3.147800   -0.680700
     40          1           0       -0.655800   -4.002600   -1.597400
 ---------------------------------------------------------------------
                    Distance matrix (angstroms):
                    1          2          3          4          5
     1  C    0.000000
     2  C    1.392821   0.000000
     3  C    2.425973   1.400149   0.000000
     4  C    2.788372   2.413131   1.400232   0.000000
     5  C    2.418076   2.788400   2.426043   1.392830   0.000000
     6  C    1.392569   2.407862   2.794146   2.407782   1.392450
     7  C    3.790161   2.508583   1.488851   2.508471   3.790104
     8  C    4.406271   3.062062   2.499998   3.644668   4.829952
     9  H    3.868758   3.395704   2.154836   1.080456   2.140725
    10  H    3.396836   3.868862   3.404347   2.148995   1.080467
    11  H    2.144766   3.386574   3.874800   3.386591   2.144801
    12  C    4.836472   3.651306   2.506471   3.067649   4.411841
    13  C    5.770340   4.403530   3.783091   4.830839   6.103167
    14  H    6.369853   5.035860   4.602738   5.696664   6.904895
    15  H    4.084188   2.853334   2.701205   3.883593   4.861230
    16  H    4.810581   3.834795   2.651850   2.807052   4.038049
    17  C    6.160545   4.888990   3.839771   4.453564   5.820531
    18  C    6.561171   5.198210   4.344652   5.195980   6.559414
    19  C    8.590605   7.332075   6.287552   6.757537   8.105054
    20  C    7.300225   6.102660   5.005036   5.398761   6.722043
    21  C    7.416913   6.389650   5.246714   5.348800   6.540265
    22  C    8.718113   7.736481   6.602695   6.612632   7.736668
    23  C    9.788234   8.706609   7.588330   7.725223   8.925263
    24  C    9.741363   8.541252   7.463037   7.793372   9.091769
    25  H    6.666560   5.766100   4.621410   4.560711   5.654848
    26  H    9.005277   8.149937   7.027724   6.872805   7.866468
    27  H   10.781139   9.732666   8.614269   8.691256   9.849794
    28  H   10.725920   9.492833   8.439184   8.813173  10.128456
    29  C    7.966755   6.593135   5.770610   6.591682   7.965561
    30  C    8.881306   7.541068   6.606861   7.266530   8.649081
    31  C   10.264126   8.907991   8.010928   8.685455  10.071327
    32  C   10.776888   9.393771   8.606158   9.395030  10.777996
    33  C   10.062460   8.677390   8.004049   8.901128  10.256314
    34  C    8.681493   7.299324   6.635742   7.565570   8.906849
    35  H   11.050713   9.718198   8.772262   9.359958  10.736571
    36  H   11.851014  10.466031   9.686864  10.468117  11.852867
    37  H   10.678649   9.304343   8.723084   9.672095  11.001022
    38  H    8.308034   6.948073   6.425317   7.441720   8.725674
    39  H    1.080439   2.148961   3.404242   3.868808   3.396803
    40  H    2.140816   1.080434   2.154620   3.395628   3.868773
                    6          7          8          9         10
     6  C    0.000000
     7  C    4.282997   0.000000
     8  C    5.131091   1.388787   0.000000
     9  H    3.383626   2.718956   3.890566   0.000000
    10  H    2.149679   4.656012   5.737131   2.464819   0.000000
    11  H    1.080655   5.363651   6.187107   4.274227   2.472650
    12  C    5.137191   1.394250   2.393907   2.871396   5.102449
    13  C    6.492074   2.420155   1.388207   4.871302   6.953470
    14  H    7.186899   3.365867   2.102832   5.792652   7.778364
    15  H    4.936569   2.139350   1.080576   4.321293   5.814372
    16  H    4.886721   2.104957   3.346674   2.493331   4.596165
    17  C    6.546579   2.477832   2.828682   4.134005   6.476247
    18  C    7.138796   2.855803   2.459019   5.005497   7.308816
    19  C    8.925040   4.952728   5.127153   6.251941   8.632769
    20  C    7.561244   3.782841   4.255007   4.908186   7.243631
    21  C    7.476449   4.334348   5.153578   4.762441   6.909590
    22  C    8.712652   5.722874   6.510323   5.961872   8.004907
    23  C    9.880548   6.528457   7.091222   7.072948   9.240033
    24  C    9.981480   6.217909   6.516960   7.200603   9.520492
    25  H    6.613052   3.976178   5.027975   3.990337   5.974622
    26  H    8.873150   6.334602   7.263698   6.200006   8.021729
    27  H   10.828688   7.591975   8.171896   8.008420  10.106331
    28  H   11.006879   7.140656   7.309998   8.219280  10.565927
    29  C    8.564751   4.281764   3.767390   6.324020   8.682540
    30  C    9.366569   5.151490   4.933099   6.857308   9.271497
    31  C   10.782474   6.541935   6.200509   8.257895  10.686088
    32  C   11.400284   7.117324   6.515348   9.045036  11.453562
    33  C   10.773768   6.536752   5.714056   8.661436  10.998484
    34  C    9.395911   5.179948   4.325614   7.383314   9.675474
    35  H   11.506317   7.333886   7.121725   8.865829  11.294136
    36  H   12.480983   8.198034   7.579495  10.098852  12.517413
    37  H   11.451128   7.290000   6.329595   9.483467  11.771076
    38  H    9.102194   5.051192   3.971478   7.373990   9.545404
    39  H    2.149780   4.656084   5.097470   4.949192   4.288951
    40  H    3.383777   2.718961   2.866819   4.294549   4.949234
                   11         12         13         14         15
    11  H    0.000000
    12  C    6.193186   0.000000
    13  C    7.556411   2.778529   0.000000
    14  H    8.223202   3.852122   1.075372   0.000000
    15  H    5.929535   3.375145   2.134765   2.397073   0.000000
    16  H    5.880828   1.074719   3.852111   4.924623   4.233842
    17  C    7.610434   1.433169   2.452577   3.444712   3.909165
    18  C    8.219450   2.455691   1.430679   2.197692   3.430190
    19  C    9.968072   3.799924   4.286602   4.957421   6.178995
    20  C    8.589767   2.499404   3.763959   4.661210   5.335506
    21  C    8.429594   2.940142   4.952470   5.930258   6.210798
    22  C    9.622758   4.328653   6.199231   7.121698   7.576242
    23  C   10.830565   5.162327   6.518610   7.312156   8.171741
    24  C   10.991364   4.957704   5.718916   6.379885   7.580209
    25  H    7.521631   2.648497   5.121378   6.166527   6.023595
    26  H    9.709342   4.961373   7.093222   8.057412   8.304728
    27  H   11.751672   6.217213   7.584226   8.354604   9.252420
    28  H   12.027117   5.934576   6.379134   6.914192   8.348764
    29  C    9.645404   3.767223   2.496860   2.768072   4.629700
    30  C   10.438842   4.290114   3.796831   4.190074   5.888090
    31  C   11.857252   5.722455   4.954631   5.122590   7.086923
    32  C   12.480933   6.521668   5.159271   5.032865   7.259136
    33  C   11.848032   6.201715   4.325887   3.971167   6.317207
    34  C   10.468238   4.954563   2.937425   2.643559   4.946738
    35  H   12.570852   6.382902   5.931494   6.167227   8.050789
    36  H   13.561630   7.587390   6.214220   6.024182   8.296805
    37  H   12.514008   7.095507   4.959101   4.396724   6.793370
    38  H   10.154410   5.120665   2.644409   1.986146   4.383113
    39  H    2.472562   5.743687   6.430551   6.922735   4.636450
    40  H    4.274281   3.896864   4.091862   4.582521   2.527223
                   16         17         18         19         20
    16  H    0.000000
    17  C    2.192015   0.000000
    18  C    3.442354   1.429667   0.000000
    19  C    4.181211   2.474913   2.856444   0.000000
    20  C    2.758568   1.426346   2.473306   1.431762   0.000000
    21  C    2.633872   2.499898   3.798579   2.457953   1.433604
    22  C    3.961812   3.770810   4.935696   2.835671   2.462471
    23  C    5.023153   4.262607   5.131495   2.462074   2.836268
    24  C    5.112923   3.768990   4.289261   1.433302   2.458302
    25  H    1.979599   2.772453   4.192754   3.450045   2.200941
    26  H    4.388079   4.641237   5.896880   3.916370   3.439246
    27  H    6.014537   5.343295   6.186315   3.438938   3.916958
    28  H    6.157671   4.665263   4.959170   2.199897   3.449853
    29  C    4.656929   2.473969   1.425971   2.474423   2.857279
    30  C    4.950638   2.857460   2.474181   1.426062   2.474939
    31  C    6.372965   4.290310   3.768181   2.498994   3.799862
    32  C    7.306120   5.132125   4.261566   3.769969   4.936969
    33  C    7.117061   4.935916   3.769776   4.261891   5.132584
    34  C    5.926441   3.798426   2.498881   3.768521   4.290169
    35  H    6.906540   4.960457   4.664534   2.770005   4.192508
    36  H    8.348377   6.187056   5.342287   4.640479   5.898277
    37  H    8.053421   5.897028   4.640341   5.342610   6.187413
    38  H    6.162155   4.190336   2.769735   4.664746   4.959645
    39  H    5.764623   7.011166   7.311612   9.427712   8.174877
    40  H    4.277640   4.928443   5.009449   7.308512   6.198345
                   21         22         23         24         25
    21  C    0.000000
    22  C    1.388533   0.000000
    23  C    2.404137   1.382867   0.000000
    24  C    2.785103   2.403902   1.388432   0.000000
    25  H    1.075330   2.101866   3.352191   3.858717   0.000000
    26  H    2.143641   1.080699   2.135623   3.380545   2.408722
    27  H    3.380725   2.135601   1.080690   2.143689   4.230972
    28  H    3.858882   3.352719   2.102777   1.075411   4.931204
    29  C    4.290380   5.132350   4.936426   3.799075   4.961596
    30  C    3.768765   4.261723   3.769632   2.498548   4.666072
    31  C    4.956945   5.160452   4.326184   2.937766   5.934707
    32  C    6.203697   6.517116   5.714687   4.326283   7.126191
    33  C    6.522825   7.097517   6.517078   5.160446   7.316501
    34  C    5.722785   6.522560   6.203344   4.956536   6.384028
    35  H    5.124082   5.033281   3.970941   2.643876   6.169185
    36  H    7.097836   7.270816   6.329349   4.958869   8.062007
    37  H    7.588437   8.178224   7.581070   6.215264   8.358948
    38  H    6.382384   7.314885   7.124846   5.933513   6.917764
    39  H    8.331370   9.627019  10.676087  10.597471   7.600853
    40  H    6.656328   8.005484   8.863966   8.571548   6.160806
                   26         27         28         29         30
    26  H    0.000000
    27  H    2.453552   0.000000
    28  H    4.231813   2.410289   0.000000
    29  C    6.187187   5.897558   4.191434   0.000000
    30  C    5.342419   4.639969   2.769295   1.431377   0.000000
    31  C    6.215239   4.958533   2.643531   2.457771   1.433349
    32  C    7.581088   6.329167   3.970850   2.835602   2.462109
    33  C    8.178202   7.270634   5.033131   2.462013   2.835837
    34  C    7.588149   7.097356   5.123534   1.433357   2.457990
    35  H    6.024337   4.395559   1.985409   3.449352   2.199941
    36  H    8.308621   6.805549   4.395749   3.916326   3.439011
    37  H    9.258906   8.308452   6.024224   3.438953   3.916557
    38  H    8.357241   8.060694   6.168247   2.199871   3.449486
    39  H    9.918459  11.669075  11.563107   8.684488   9.652494
    40  H    8.508824   9.904350   9.464586   6.326575   7.363222
                   31         32         33         34         35
    31  C    0.000000
    32  C    1.388534   0.000000
    33  C    2.404173   1.382977   0.000000
    34  C    2.785204   2.404083   1.388485   0.000000
    35  H    1.075405   2.102943   3.353007   3.858978   0.000000
    36  H    2.143784   1.080724   2.135673   3.380687   2.410489
    37  H    3.380773   2.135685   1.080721   2.143766   4.232049
    38  H    3.859026   3.353080   2.103093   1.075438   4.931548
    39  H   11.006196  11.451733  10.676665   9.305663  11.818597
    40  H    8.667260   9.042621   8.249656   6.892461   9.523610
                   36         37         38         39         40
    36  H    0.000000
    37  H    2.453523   0.000000
    38  H    4.232169   2.410749   0.000000
    39  H   12.514324  11.233036   8.860926   0.000000
    40  H   10.094929   8.808025   6.465299   2.464960   0.000000
 Stoichiometry    C24H16
 Framework group  C1[X(C24H16)]
 Deg. of freedom   114
 Full point group                 C1      NOp   1
 Largest Abelian subgroup         C1      NOp   1
 Largest concise Abelian subgroup C1      NOp   1
                         Standard orientation:                         
 ---------------------------------------------------------------------
 Center     Atomic      Atomic             Coordinates (Angstroms)
 Number     Number       Type             X           Y           Z
 ---------------------------------------------------------------------
      1          6           0        5.750443   -0.749578   -0.838186
      2          6           0        4.380712   -1.002004   -0.829825
      3          6           0        3.529690   -0.287709    0.022208
      4          6           0        4.075881    0.684841    0.868654
      5          6           0        5.445170    0.939810    0.864715
      6          6           0        6.277091    0.221105    0.010146
      7          6           0        2.065704   -0.558601    0.028732
      8          6           0        1.588252   -1.861454    0.086545
      9          1           0        3.436095    1.237967    1.541046
     10          1           0        5.859134    1.689529    1.523473
     11          1           0        7.339702    0.417702    0.005458
     12          6           0        1.146987    0.488918   -0.022227
     13          6           0        0.226292   -2.129905    0.097377
     14          1           0       -0.060603   -3.165074    0.147796
     15          1           0        2.287612   -2.683719    0.135723
     16          1           0        1.556410    1.480974   -0.078964
     17          6           0       -0.269260    0.269441   -0.015328
     18          6           0       -0.742366   -1.078214    0.047471
     19          6           0       -2.605869    1.084065   -0.058251
     20          6           0       -1.199020    1.349759   -0.069391
     21          6           0       -0.769346    2.715857   -0.135542
     22          6           0       -1.681287    3.761660   -0.187332
     23          6           0       -3.040023    3.504694   -0.176056
     24          6           0       -3.505836    2.198249   -0.113084
     25          1           0        0.271582    2.985356   -0.148712
     26          1           0       -1.329884    4.782411   -0.237281
     27          1           0       -3.740622    4.326511   -0.216914
     28          1           0       -4.573223    2.067211   -0.108123
     29          6           0       -2.143318   -1.343923    0.058743
     30          6           0       -3.077096   -0.260352    0.006100
     31          6           0       -4.476212   -0.571442    0.019770
     32          6           0       -4.927058   -1.883261    0.082179
     33          6           0       -4.024786   -2.930137    0.132983
     34          6           0       -2.659105   -2.679759    0.122145
     35          1           0       -5.229165    0.195475   -0.017611
     36          1           0       -5.987797   -2.089936    0.091170
     37          1           0       -4.387077   -3.947169    0.181452
     38          1           0       -2.011487   -3.537317    0.164006
     39          1           0        6.399822   -1.302816   -1.501196
     40          1           0        3.975669   -1.749458   -1.496600
 ---------------------------------------------------------------------
 Rotational constants (GHZ):           0.4700924           0.1394547           0.1097099
 Standard basis: def2TZVP (5D, 7F)
 There are   960 symmetry adapted cartesian basis functions of A   symmetry.
 There are   840 symmetry adapted basis functions of A   symmetry.
   840 basis functions,  1352 primitive gaussians,   960 cartesian basis functions
    80 alpha electrons       80 beta electrons
       nuclear repulsion energy      1755.9828920304 Hartrees.
 NAtoms=   40 NActive=   40 NUniq=   40 SFac= 1.00D+00 NAtFMM=   60 NAOKFM=F Big=F
 Integral buffers will be    131072 words long.
 Raffenetti 2 integral format.
 Two-electron integral symmetry is turned on.
 One-electron integrals computed using PRISM.
   1 Symmetry operations used in ECPInt.
 ECPInt:  NShTT=   53956 NPrTT=  166752 LenC2=   44854 LenP2D=   97393.
 LDataN:  DoStor=T MaxTD1= 6 Len=  172
 Number of processors reduced to  28 by ecpmxn.
 NBasis=   840 RedAO= T EigKep=  2.03D-06  NBF=   840
 NBsUse=   840 1.00D-06 EigRej= -1.00D+00 NBFU=   840
 ExpMin= 9.52D-02 ExpMax= 1.36D+04 ExpMxC= 4.63D+02 IAcc=3 IRadAn=         5 AccDes= 0.00D+00
 Harris functional with IExCor= 1009 and IRadAn=       5 diagonalized for initial guess.
 HarFok:  IExCor= 1009 AccDes= 0.00D+00 IRadAn=         5 IDoV= 1 UseB2=F ITyADJ=14
 ICtDFT=  3500011 ScaDFX=  1.000000  1.000000  1.000000  1.000000
 FoFCou: FMM=F IPFlag=           0 FMFlag=      100000 FMFlg1=           0
         NFxFlg=           0 DoJE=T BraDBF=F KetDBF=T FulRan=T
         wScrn=  0.000000 ICntrl=       500 IOpCl=  0 I1Cent=   200000004 NGrid=           0
         NMat0=    1 NMatS0=      1 NMatT0=    0 NMatD0=    1 NMtDS0=    0 NMtDT0=    0
 Petite list used in FoFCou.
 Requested convergence on RMS density matrix=1.00D-08 within 128 cycles.
 Requested convergence on MAX density matrix=1.00D-06.
 Requested convergence on             energy=1.00D-06.
 No special actions if energy rises.
 Integral accuracy reduced to 1.0D-05 until final iterations.
 Problem detected with inexpensive integrals.
 Switching to full accuracy and repeating last cycle.
 SCF Done:  E(RM062X) =  -924.168940450     A.U. after   14 cycles
            NFock= 14  Conv=0.66D-08     -V/T= 2.0055

 **********************************************************************

            Population analysis using the SCF Density.

 **********************************************************************

 Orbital symmetries:
       Occupied  (A) (A) (A) (A) (A) (A) (A) (A) (A) (A) (A) (A)
                 (A) (A) (A) (A) (A) (A) (A) (A) (A) (A) (A) (A)
                 (A) (A) (A) (A) (A) (A) (A) (A) (A) (A) (A) (A)
                 (A) (A) (A) (A) (A) (A) (A) (A) (A) (A) (A) (A)
                 (A) (A) (A) (A) (A) (A) (A) (A) (A) (A) (A) (A)
                 (A) (A) (A) (A) (A) (A) (A) (A) (A) (A) (A) (A)
                 (A) (A) (A) (A) (A) (A) (A) (A)
       Virtual   (A) (A) (A) (A) (A) (A) (A) (A) (A) (A) (A) (A)
                 (A) (A) (A) (A) (A) (A) (A) (A) (A) (A) (A) (A)
                 (A) (A) (A) (A) (A) (A) (A) (A) (A) (A) (A) (A)
                 (A) (A) (A) (A) (A) (A) (A) (A) (A) (A) (A) (A)
                 (A) (A) (A) (A) (A) (A) (A) (A) (A) (A) (A) (A)
                 (A) (A) (A) (A) (A) (A) (A) (A) (A) (A) (A) (A)
                 (A) (A) (A) (A) (A) (A) (A) (A) (A) (A) (A) (A)
                 (A) (A) (A) (A) (A) (A) (A) (A) (A) (A) (A) (A)
                 (A) (A) (A) (A) (A) (A) (A) (A) (A) (A) (A) (A)
                 (A) (A) (A) (A) (A) (A) (A) (A) (A) (A) (A) (A)
                 (A) (A) (A) (A) (A) (A) (A) (A) (A) (A) (A) (A)
                 (A) (A) (A) (A) (A) (A) (A) (A) (A) (A) (A) (A)
                 (A) (A) (A) (A) (A) (A) (A) (A) (A) (A) (A) (A)
                 (A) (A) (A) (A) (A) (A) (A) (A) (A) (A) (A) (A)
                 (A) (A) (A) (A) (A) (A) (A) (A) (A) (A) (A) (A)
                 (A) (A) (A) (A) (A) (A) (A) (A) (A) (A) (A) (A)
                 (A) (A) (A) (A) (A) (A) (A) (A) (A) (A) (A) (A)
                 (A) (A) (A) (A) (A) (A) (A) (A) (A) (A) (A) (A)
                 (A) (A) (A) (A) (A) (A) (A) (A) (A) (A) (A) (A)
                 (A) (A) (A) (A) (A) (A) (A) (A) (A) (A) (A) (A)
                 (A) (A) (A) (A) (A) (A) (A) (A) (A) (A) (A) (A)
                 (A) (A) (A) (A) (A) (A) (A) (A) (A) (A) (A) (A)
                 (A) (A) (A) (A) (A) (A) (A) (A) (A) (A) (A) (A)
                 (A) (A) (A) (A) (A) (A) (A) (A) (A) (A) (A) (A)
                 (A) (A) (A) (A) (A) (A) (A) (A) (A) (A) (A) (A)
                 (A) (A) (A) (A) (A) (A) (A) (A) (A) (A) (A) (A)
                 (A) (A) (A) (A) (A) (A) (A) (A) (A) (A) (A) (A)
                 (A) (A) (A) (A) (A) (A) (A) (A) (A) (A) (A) (A)
                 (A) (A) (A) (A) (A) (A) (A) (A) (A) (A) (A) (A)
                 (A) (A) (A) (A) (A) (A) (A) (A) (A) (A) (A) (A)
                 (A) (A) (A) (A) (A) (A) (A) (A) (A) (A) (A) (A)
                 (A) (A) (A) (A) (A) (A) (A) (A) (A) (A) (A) (A)
                 (A) (A) (A) (A) (A) (A) (A) (A) (A) (A) (A) (A)
                 (A) (A) (A) (A) (A) (A) (A) (A) (A) (A) (A) (A)
                 (A) (A) (A) (A) (A) (A) (A) (A) (A) (A) (A) (A)
                 (A) (A) (A) (A) (A) (A) (A) (A) (A) (A) (A) (A)
                 (A) (A) (A) (A) (A) (A) (A) (A) (A) (A) (A) (A)
                 (A) (A) (A) (A) (A) (A) (A) (A) (A) (A) (A) (A)
                 (A) (A) (A) (A) (A) (A) (A) (A) (A) (A) (A) (A)
                 (A) (A) (A) (A) (A) (A) (A) (A) (A) (A) (A) (A)
                 (A) (A) (A) (A) (A) (A) (A) (A) (A) (A) (A) (A)
                 (A) (A) (A) (A) (A) (A) (A) (A) (A) (A) (A) (A)
                 (A) (A) (A) (A) (A) (A) (A) (A) (A) (A) (A) (A)
                 (A) (A) (A) (A) (A) (A) (A) (A) (A) (A) (A) (A)
                 (A) (A) (A) (A) (A) (A) (A) (A) (A) (A) (A) (A)
                 (A) (A) (A) (A) (A) (A) (A) (A) (A) (A) (A) (A)
                 (A) (A) (A) (A) (A) (A) (A) (A) (A) (A) (A) (A)
                 (A) (A) (A) (A) (A) (A) (A) (A) (A) (A) (A) (A)
                 (A) (A) (A) (A) (A) (A) (A) (A) (A) (A) (A) (A)
                 (A) (A) (A) (A) (A) (A) (A) (A) (A) (A) (A) (A)
                 (A) (A) (A) (A) (A) (A) (A) (A) (A) (A) (A) (A)
                 (A) (A) (A) (A) (A) (A) (A) (A) (A) (A) (A) (A)
                 (A) (A) (A) (A) (A) (A) (A) (A) (A) (A) (A) (A)
                 (A) (A) (A) (A) (A) (A) (A) (A) (A) (A) (A) (A)
                 (A) (A) (A) (A) (A) (A) (A) (A) (A) (A) (A) (A)
                 (A) (A) (A) (A) (A) (A) (A) (A) (A) (A) (A) (A)
                 (A) (A) (A) (A) (A) (A) (A) (A) (A) (A) (A) (A)
                 (A) (A) (A) (A) (A) (A) (A) (A) (A) (A) (A) (A)
                 (A) (A) (A) (A) (A) (A) (A) (A) (A) (A) (A) (A)
                 (A) (A) (A) (A) (A) (A) (A) (A) (A) (A) (A) (A)
                 (A) (A) (A) (A) (A) (A) (A) (A) (A) (A) (A) (A)
                 (A) (A) (A) (A) (A) (A) (A) (A) (A) (A) (A) (A)
                 (A) (A) (A) (A) (A) (A) (A) (A) (A) (A) (A) (A)
                 (A) (A) (A) (A)
 The electronic state is 1-A.
 Alpha  occ. eigenvalues --  -10.56167 -10.56131 -10.56110 -10.56070 -10.56036
 Alpha  occ. eigenvalues --  -10.55990 -10.55643 -10.55469 -10.54912 -10.54842
 Alpha  occ. eigenvalues --  -10.54837 -10.54834 -10.54831 -10.54823 -10.54572
 Alpha  occ. eigenvalues --  -10.54559 -10.54497 -10.54480 -10.54394 -10.54356
 Alpha  occ. eigenvalues --  -10.54350 -10.54344 -10.54274 -10.54268  -0.99918
 Alpha  occ. eigenvalues --   -0.97379  -0.95396  -0.95073  -0.90369  -0.88101
 Alpha  occ. eigenvalues --   -0.87522  -0.85021  -0.84703  -0.82315  -0.81532
 Alpha  occ. eigenvalues --   -0.80609  -0.73509  -0.72114  -0.71716  -0.69297
 Alpha  occ. eigenvalues --   -0.68302  -0.66921  -0.66570  -0.62576  -0.62248
 Alpha  occ. eigenvalues --   -0.59618  -0.57540  -0.56529  -0.56263  -0.54459
 Alpha  occ. eigenvalues --   -0.54066  -0.52315  -0.51903  -0.49680  -0.49549
 Alpha  occ. eigenvalues --   -0.49219  -0.49105  -0.48921  -0.48858  -0.48727
 Alpha  occ. eigenvalues --   -0.48548  -0.44725  -0.44489  -0.43376  -0.43162
 Alpha  occ. eigenvalues --   -0.42943  -0.42662  -0.42340  -0.40603  -0.40419
 Alpha  occ. eigenvalues --   -0.38194  -0.38087  -0.36361  -0.34647  -0.34392
 Alpha  occ. eigenvalues --   -0.31219  -0.30959  -0.28809  -0.26712  -0.26157
 Alpha virt. eigenvalues --   -0.02659  -0.02246  -0.01708   0.01652   0.02062
 Alpha virt. eigenvalues --    0.05021   0.05539   0.07972   0.08054   0.08269
 Alpha virt. eigenvalues --    0.08677   0.09033   0.09946   0.10828   0.11224
 Alpha virt. eigenvalues --    0.12248   0.12509   0.13209   0.13565   0.13901
 Alpha virt. eigenvalues --    0.14759   0.14864   0.15683   0.16364   0.16924
 Alpha virt. eigenvalues --    0.17486   0.17638   0.18443   0.18832   0.19832
 Alpha virt. eigenvalues --    0.21140   0.21396   0.21810   0.22112   0.22575
 Alpha virt. eigenvalues --    0.23056   0.23431   0.24065   0.24410   0.24536
 Alpha virt. eigenvalues --    0.24917   0.25184   0.25525   0.25963   0.26330
 Alpha virt. eigenvalues --    0.26644   0.26749   0.27146   0.27454   0.27776
 Alpha virt. eigenvalues --    0.27878   0.28373   0.28758   0.28983   0.29394
 Alpha virt. eigenvalues --    0.30021   0.30336   0.30604   0.31188   0.31715
 Alpha virt. eigenvalues --    0.32163   0.32376   0.32760   0.33028   0.33795
 Alpha virt. eigenvalues --    0.34072   0.34309   0.35573   0.35999   0.36365
 Alpha virt. eigenvalues --    0.36988   0.37343   0.37465   0.37820   0.38720
 Alpha virt. eigenvalues --    0.38750   0.39445   0.39552   0.39829   0.39999
 Alpha virt. eigenvalues --    0.40368   0.41151   0.41502   0.41824   0.42033
 Alpha virt. eigenvalues --    0.42185   0.42318   0.42828   0.43289   0.43650
 Alpha virt. eigenvalues --    0.44186   0.44322   0.44652   0.44788   0.45146
 Alpha virt. eigenvalues --    0.45249   0.45515   0.45934   0.46245   0.46442
 Alpha virt. eigenvalues --    0.47514   0.47963   0.48092   0.48646   0.49061
 Alpha virt. eigenvalues --    0.49297   0.50276   0.51190   0.51623   0.52401
 Alpha virt. eigenvalues --    0.52512   0.52632   0.53391   0.53878   0.54210
 Alpha virt. eigenvalues --    0.55170   0.55647   0.56607   0.57726   0.58075
 Alpha virt. eigenvalues --    0.58342   0.58470   0.59747   0.60434   0.60648
 Alpha virt. eigenvalues --    0.61729   0.62126   0.62293   0.63053   0.64028
 Alpha virt. eigenvalues --    0.64288   0.64712   0.65000   0.65612   0.66553
 Alpha virt. eigenvalues --    0.66770   0.67093   0.67673   0.68143   0.68736
 Alpha virt. eigenvalues --    0.69727   0.70278   0.71380   0.71524   0.71681
 Alpha virt. eigenvalues --    0.72009   0.72805   0.73356   0.73601   0.74254
 Alpha virt. eigenvalues --    0.74285   0.74525   0.75077   0.75909   0.76329
 Alpha virt. eigenvalues --    0.76670   0.76848   0.77768   0.77842   0.78180
 Alpha virt. eigenvalues --    0.78411   0.78775   0.79662   0.79734   0.80341
 Alpha virt. eigenvalues --    0.81082   0.81390   0.82195   0.82486   0.82810
 Alpha virt. eigenvalues --    0.83247   0.83588   0.84541   0.85227   0.85716
 Alpha virt. eigenvalues --    0.86051   0.86427   0.87243   0.88256   0.88674
 Alpha virt. eigenvalues --    0.89023   0.89788   0.89997   0.91274   0.91936
 Alpha virt. eigenvalues --    0.92619   0.92775   0.93762   0.93986   0.94459
 Alpha virt. eigenvalues --    0.95565   0.95763   0.96051   0.97142   0.97641
 Alpha virt. eigenvalues --    0.98183   0.99059   0.99534   1.00009   1.01116
 Alpha virt. eigenvalues --    1.01831   1.02165   1.02519   1.04030   1.04436
 Alpha virt. eigenvalues --    1.05591   1.06358   1.06816   1.08308   1.08717
 Alpha virt. eigenvalues --    1.10642   1.11266   1.12019   1.13119   1.13841
 Alpha virt. eigenvalues --    1.14312   1.14993   1.16092   1.16203   1.16685
 Alpha virt. eigenvalues --    1.16905   1.17363   1.17714   1.19457   1.20009
 Alpha virt. eigenvalues --    1.21287   1.22011   1.22787   1.23383   1.23977
 Alpha virt. eigenvalues --    1.24574   1.24750   1.25031   1.25982   1.27712
 Alpha virt. eigenvalues --    1.28229   1.29104   1.29218   1.29672   1.30665
 Alpha virt. eigenvalues --    1.30747   1.31034   1.31635   1.31877   1.32788
 Alpha virt. eigenvalues --    1.33475   1.34405   1.35141   1.36141   1.36584
 Alpha virt. eigenvalues --    1.37075   1.37414   1.38074   1.38671   1.39146
 Alpha virt. eigenvalues --    1.39877   1.40320   1.40624   1.42033   1.43420
 Alpha virt. eigenvalues --    1.45255   1.45416   1.45930   1.46348   1.47019
 Alpha virt. eigenvalues --    1.47976   1.48020   1.48242   1.49258   1.49571
 Alpha virt. eigenvalues --    1.49763   1.50723   1.52051   1.52551   1.54961
 Alpha virt. eigenvalues --    1.55146   1.55188   1.55876   1.56164   1.56227
 Alpha virt. eigenvalues --    1.57020   1.57777   1.58119   1.58758   1.59017
 Alpha virt. eigenvalues --    1.59730   1.60755   1.61317   1.61860   1.63643
 Alpha virt. eigenvalues --    1.64165   1.64390   1.65505   1.66269   1.66389
 Alpha virt. eigenvalues --    1.66967   1.67299   1.68449   1.68832   1.69250
 Alpha virt. eigenvalues --    1.70213   1.70710   1.71004   1.71356   1.71858
 Alpha virt. eigenvalues --    1.72542   1.73379   1.74017   1.74486   1.74531
 Alpha virt. eigenvalues --    1.75899   1.76391   1.77019   1.77123   1.77363
 Alpha virt. eigenvalues --    1.77539   1.78529   1.78990   1.79353   1.81155
 Alpha virt. eigenvalues --    1.82737   1.84135   1.85805   1.88176   1.88379
 Alpha virt. eigenvalues --    1.89788   1.90610   1.91024   1.91917   1.92159
 Alpha virt. eigenvalues --    1.93491   1.93926   1.94596   1.95191   1.95729
 Alpha virt. eigenvalues --    1.97602   1.98337   1.99404   2.00552   2.01161
 Alpha virt. eigenvalues --    2.03137   2.04343   2.05108   2.06256   2.07077
 Alpha virt. eigenvalues --    2.08042   2.08574   2.08803   2.09928   2.10918
 Alpha virt. eigenvalues --    2.12172   2.12573   2.13237   2.15417   2.15440
 Alpha virt. eigenvalues --    2.16875   2.17021   2.18308   2.18845   2.19809
 Alpha virt. eigenvalues --    2.20475   2.21320   2.22105   2.22289   2.22572
 Alpha virt. eigenvalues --    2.24165   2.24440   2.24698   2.25144   2.26489
 Alpha virt. eigenvalues --    2.26731   2.27436   2.28066   2.29283   2.29564
 Alpha virt. eigenvalues --    2.30434   2.31494   2.32099   2.33271   2.34172
 Alpha virt. eigenvalues --    2.36319   2.37437   2.38830   2.39514   2.41996
 Alpha virt. eigenvalues --    2.44872   2.45597   2.45951   2.46976   2.47090
 Alpha virt. eigenvalues --    2.48271   2.48566   2.48839   2.49593   2.51104
 Alpha virt. eigenvalues --    2.51323   2.53105   2.53838   2.55594   2.55980
 Alpha virt. eigenvalues --    2.56481   2.57015   2.57644   2.58855   2.59177
 Alpha virt. eigenvalues --    2.60790   2.61089   2.62075   2.62182   2.63167
 Alpha virt. eigenvalues --    2.64284   2.64496   2.65340   2.65600   2.66486
 Alpha virt. eigenvalues --    2.66847   2.67241   2.67609   2.68367   2.68660
 Alpha virt. eigenvalues --    2.68716   2.69326   2.69927   2.70352   2.70905
 Alpha virt. eigenvalues --    2.71657   2.72405   2.72550   2.73073   2.73526
 Alpha virt. eigenvalues --    2.74429   2.74566   2.75009   2.75625   2.75866
 Alpha virt. eigenvalues --    2.76322   2.77123   2.77558   2.78320   2.79151
 Alpha virt. eigenvalues --    2.80008   2.80650   2.81356   2.82178   2.82441
 Alpha virt. eigenvalues --    2.82707   2.83237   2.83440   2.84090   2.84292
 Alpha virt. eigenvalues --    2.84445   2.85190   2.85536   2.86232   2.86704
 Alpha virt. eigenvalues --    2.87193   2.87463   2.87987   2.88569   2.88743
 Alpha virt. eigenvalues --    2.89718   2.90385   2.90472   2.91317   2.92000
 Alpha virt. eigenvalues --    2.93382   2.94211   2.94546   2.94981   2.95134
 Alpha virt. eigenvalues --    2.95613   2.96123   2.96538   2.96978   2.97613
 Alpha virt. eigenvalues --    2.98127   2.98728   3.00292   3.00892   3.01254
 Alpha virt. eigenvalues --    3.02037   3.03314   3.03806   3.04224   3.04766
 Alpha virt. eigenvalues --    3.05529   3.05980   3.06719   3.07112   3.07468
 Alpha virt. eigenvalues --    3.08019   3.09041   3.09276   3.09427   3.10641
 Alpha virt. eigenvalues --    3.10999   3.11564   3.12102   3.13142   3.13501
 Alpha virt. eigenvalues --    3.14093   3.15070   3.15312   3.15410   3.16374
 Alpha virt. eigenvalues --    3.17166   3.17185   3.17866   3.18305   3.19397
 Alpha virt. eigenvalues --    3.19640   3.19785   3.20772   3.21166   3.22034
 Alpha virt. eigenvalues --    3.22327   3.22990   3.23190   3.23769   3.24029
 Alpha virt. eigenvalues --    3.25643   3.26340   3.26852   3.27250   3.27805
 Alpha virt. eigenvalues --    3.28192   3.28647   3.29373   3.30175   3.30901
 Alpha virt. eigenvalues --    3.31412   3.31626   3.32083   3.32845   3.33496
 Alpha virt. eigenvalues --    3.34034   3.34306   3.34784   3.35515   3.35806
 Alpha virt. eigenvalues --    3.36778   3.37919   3.38830   3.38984   3.39625
 Alpha virt. eigenvalues --    3.40067   3.40396   3.40709   3.41223   3.42107
 Alpha virt. eigenvalues --    3.42566   3.43525   3.43624   3.44225   3.44690
 Alpha virt. eigenvalues --    3.45176   3.45650   3.46018   3.46436   3.46746
 Alpha virt. eigenvalues --    3.46770   3.47717   3.48206   3.48615   3.49068
 Alpha virt. eigenvalues --    3.49600   3.50817   3.51172   3.52535   3.52771
 Alpha virt. eigenvalues --    3.53380   3.54352   3.54729   3.55706   3.56177
 Alpha virt. eigenvalues --    3.56644   3.57217   3.57659   3.57896   3.59303
 Alpha virt. eigenvalues --    3.59901   3.60474   3.61047   3.62028   3.62629
 Alpha virt. eigenvalues --    3.63414   3.63907   3.64667   3.66185   3.66756
 Alpha virt. eigenvalues --    3.67455   3.68214   3.69219   3.69927   3.71088
 Alpha virt. eigenvalues --    3.72218   3.74831   3.75627   3.76723   3.77478
 Alpha virt. eigenvalues --    3.78832   3.80164   3.81417   3.81745   3.83404
 Alpha virt. eigenvalues --    3.85137   3.87261   3.87359   3.87786   3.88064
 Alpha virt. eigenvalues --    3.88956   3.90528   3.91960   3.94149   3.94949
 Alpha virt. eigenvalues --    3.95775   3.95899   3.98476   4.00238   4.00346
 Alpha virt. eigenvalues --    4.00871   4.01470   4.02139   4.03499   4.04017
 Alpha virt. eigenvalues --    4.05335   4.05758   4.06810   4.06830   4.07686
 Alpha virt. eigenvalues --    4.07902   4.08935   4.09224   4.09925   4.11139
 Alpha virt. eigenvalues --    4.12046   4.12573   4.13999   4.16640   4.17085
 Alpha virt. eigenvalues --    4.17411   4.18178   4.18668   4.19003   4.19588
 Alpha virt. eigenvalues --    4.19724   4.20208   4.20691   4.21484   4.22274
 Alpha virt. eigenvalues --    4.22835   4.24373   4.24606   4.25501   4.26495
 Alpha virt. eigenvalues --    4.27110   4.27518   4.27650   4.28204   4.29516
 Alpha virt. eigenvalues --    4.30117   4.32660   4.33590   4.34004   4.34603
 Alpha virt. eigenvalues --    4.34717   4.38055   4.39117   4.41480   4.42102
 Alpha virt. eigenvalues --    4.46632   4.48146   4.51314   4.52392   4.52680
 Alpha virt. eigenvalues --    4.54359   4.55222   4.55885   4.56718   4.57396
 Alpha virt. eigenvalues --    4.58446   4.60353   4.61850   4.62960   4.63974
 Alpha virt. eigenvalues --    4.65298   4.66282   4.67997   4.68658   4.69488
 Alpha virt. eigenvalues --    4.71087   4.72860   4.77461   4.79820   4.81393
 Alpha virt. eigenvalues --    4.83045   4.84646   4.84886   4.87686   4.88419
 Alpha virt. eigenvalues --    4.88988   4.90969   4.91788   4.94094   4.97324
 Alpha virt. eigenvalues --    4.99353   5.01793   5.03242   5.04898   5.07478
 Alpha virt. eigenvalues --    5.07510   5.13719   5.17626   5.18383   5.19649
 Alpha virt. eigenvalues --    5.21676   5.24663   5.27097   5.28325   5.31013
 Alpha virt. eigenvalues --    5.32847   5.34268   5.34710   5.36479   5.37977
 Alpha virt. eigenvalues --    5.42495   5.50068   5.54472   5.55887   5.61088
 Alpha virt. eigenvalues --    5.66941   5.73218   5.75820   5.83796   5.86266
 Alpha virt. eigenvalues --    6.21317  21.94758  22.29815  22.63917  22.66079
 Alpha virt. eigenvalues --   22.70023  22.70831  22.73552  22.77785  22.78667
 Alpha virt. eigenvalues --   22.81659  22.83142  22.85265  22.91113  22.95425
 Alpha virt. eigenvalues --   22.98489  22.98768  23.12496  23.19115  23.24644
 Alpha virt. eigenvalues --   23.24878  23.36401  23.43165  23.52432  24.17175
          Condensed to atoms (all electrons):
               1          2          3          4          5          6
     1  C    4.903997   0.503131  -0.055623  -0.041204  -0.042664   0.522181
     2  C    0.503131   5.030529   0.493112  -0.035019  -0.042073  -0.045045
     3  C   -0.055623   0.493112   5.044078   0.495674  -0.056659  -0.040323
     4  C   -0.041204  -0.035019   0.495674   5.035505   0.505788  -0.046405
     5  C   -0.042664  -0.042073  -0.056659   0.505788   4.901054   0.523326
     6  C    0.522181  -0.045045  -0.040323  -0.046405   0.523326   4.881725
     7  C    0.007946  -0.083611   0.276405  -0.103555   0.008829  -0.004980
     8  C    0.001222   0.001357  -0.073319   0.004383  -0.000710   0.000009
     9  H   -0.000756   0.006090  -0.036974   0.400459  -0.026152   0.003477
    10  H    0.003393   0.000122   0.004361  -0.030500   0.407644  -0.030794
    11  H   -0.032889   0.003526   0.001286   0.003419  -0.032884   0.408542
    12  C   -0.001477   0.006562  -0.109209   0.022459  -0.000089   0.000726
    13  C   -0.000083   0.003191   0.010140  -0.001362   0.000099  -0.000023
    14  H   -0.000003  -0.000033  -0.000128   0.000055  -0.000000   0.000000
    15  H    0.000287   0.003178  -0.003716   0.000829  -0.000189  -0.000012
    16  H   -0.000085  -0.000709   0.002454  -0.003639   0.000367  -0.000048
    17  C    0.000064   0.000823   0.008388   0.010201  -0.000395   0.000011
    18  C    0.000006  -0.000118   0.000550   0.000145  -0.000020   0.000002
    19  C   -0.000000  -0.000010   0.000189  -0.000011   0.000001  -0.000000
    20  C   -0.000010   0.000177  -0.003369   0.000274   0.000008  -0.000002
    21  C    0.000003  -0.000005   0.000200   0.000274  -0.000021   0.000001
    22  C    0.000000   0.000000  -0.000035   0.000007  -0.000000   0.000000
    23  C   -0.000000   0.000000  -0.000000   0.000003   0.000000   0.000000
    24  C    0.000000  -0.000000  -0.000000  -0.000002  -0.000000  -0.000000
    25  H   -0.000003   0.000010   0.000458   0.000846  -0.000003  -0.000001
    26  H    0.000000  -0.000000   0.000001  -0.000002  -0.000000   0.000000
    27  H   -0.000000   0.000000  -0.000000   0.000000   0.000000  -0.000000
    28  H    0.000000  -0.000000   0.000000  -0.000000  -0.000000  -0.000000
    29  C    0.000000   0.000018  -0.000837  -0.000012   0.000000  -0.000000
    30  C   -0.000000   0.000003  -0.000063   0.000012  -0.000000   0.000000
    31  C   -0.000000   0.000000  -0.000000   0.000000  -0.000000   0.000000
    32  C    0.000000  -0.000000  -0.000000  -0.000000  -0.000000   0.000000
    33  C   -0.000000   0.000000  -0.000000   0.000000   0.000000  -0.000000
    34  C   -0.000000   0.000000   0.000038   0.000000   0.000000   0.000000
    35  H    0.000000  -0.000000   0.000000   0.000000   0.000000  -0.000000
    36  H    0.000000  -0.000000   0.000000  -0.000000  -0.000000  -0.000000
    37  H   -0.000000   0.000000   0.000000   0.000000   0.000000  -0.000000
    38  H   -0.000000   0.000000   0.000008   0.000000  -0.000000   0.000000
    39  H    0.407681  -0.030646   0.004403   0.000256   0.003281  -0.030709
    40  H   -0.025810   0.398924  -0.039043   0.006248  -0.000622   0.003404
               7          8          9         10         11         12
     1  C    0.007946   0.001222  -0.000756   0.003393  -0.032889  -0.001477
     2  C   -0.083611   0.001357   0.006090   0.000122   0.003526   0.006562
     3  C    0.276405  -0.073319  -0.036974   0.004361   0.001286  -0.109209
     4  C   -0.103555   0.004383   0.400459  -0.030500   0.003419   0.022459
     5  C    0.008829  -0.000710  -0.026152   0.407644  -0.032884  -0.000089
     6  C   -0.004980   0.000009   0.003477  -0.030794   0.408542   0.000726
     7  C    4.992664   0.491129   0.001078  -0.000019   0.000122   0.436729
     8  C    0.491129   5.032830   0.000082   0.000032   0.000000  -0.030092
     9  H    0.001078   0.000082   0.479561  -0.003463  -0.000263   0.005317
    10  H   -0.000019   0.000032  -0.003463   0.508005  -0.003909   0.000022
    11  H    0.000122   0.000000  -0.000263  -0.003909   0.514567  -0.000020
    12  C    0.436729  -0.030092   0.005317   0.000022  -0.000020   5.654214
    13  C   -0.032982   0.496317  -0.000073  -0.000000   0.000000  -0.117041
    14  H    0.001319  -0.011461   0.000003   0.000000  -0.000000   0.000710
    15  H   -0.031425   0.387324   0.000074   0.000002  -0.000000   0.014322
    16  H   -0.000144   0.005058  -0.004174   0.000037   0.000002   0.349704
    17  C   -0.048078  -0.029801   0.002203   0.000002  -0.000000   0.330086
    18  C   -0.027783  -0.067675  -0.000173   0.000000  -0.000000  -0.094685
    19  C    0.001549  -0.000601  -0.000004   0.000000   0.000000   0.040195
    20  C    0.002344   0.001583   0.000156   0.000001   0.000000  -0.153217
    21  C    0.006323  -0.000394   0.000202   0.000000  -0.000000  -0.074742
    22  C   -0.000398  -0.000017   0.000004   0.000000  -0.000000   0.000286
    23  C   -0.000015   0.000007   0.000001  -0.000000  -0.000000  -0.000969
    24  C    0.000132  -0.000041  -0.000001   0.000000   0.000000   0.000751
    25  H    0.004617  -0.000088   0.000262   0.000000  -0.000000   0.006630
    26  H    0.000014  -0.000001  -0.000000   0.000000   0.000000   0.000277
    27  H   -0.000001   0.000000  -0.000000   0.000000   0.000000  -0.000013
    28  H    0.000002   0.000000   0.000000  -0.000000   0.000000   0.000027
    29  C   -0.004058   0.000608  -0.000002   0.000000  -0.000000   0.038684
    30  C   -0.001287   0.000686   0.000002   0.000000  -0.000000  -0.008718
    31  C   -0.000048   0.000067   0.000000  -0.000000  -0.000000   0.000332
    32  C    0.000002   0.000027  -0.000000  -0.000000  -0.000000  -0.000070
    33  C   -0.000001  -0.000432   0.000000   0.000000   0.000000   0.000174
    34  C   -0.000146   0.003516   0.000000   0.000000   0.000000  -0.001485
    35  H    0.000001  -0.000000   0.000000   0.000000   0.000000  -0.000000
    36  H    0.000000  -0.000000   0.000000   0.000000  -0.000000  -0.000000
    37  H   -0.000000   0.000006   0.000000   0.000000   0.000000   0.000001
    38  H   -0.000169   0.002756   0.000000   0.000000   0.000000   0.000133
    39  H    0.000005  -0.000008   0.000061  -0.000277  -0.003880   0.000039
    40  H    0.006882   0.000060  -0.000243   0.000061  -0.000272   0.001589
              13         14         15         16         17         18
     1  C   -0.000083  -0.000003   0.000287  -0.000085   0.000064   0.000006
     2  C    0.003191  -0.000033   0.003178  -0.000709   0.000823  -0.000118
     3  C    0.010140  -0.000128  -0.003716   0.002454   0.008388   0.000550
     4  C   -0.001362   0.000055   0.000829  -0.003639   0.010201   0.000145
     5  C    0.000099  -0.000000  -0.000189   0.000367  -0.000395  -0.000020
     6  C   -0.000023   0.000000  -0.000012  -0.000048   0.000011   0.000002
     7  C   -0.032982   0.001319  -0.031425  -0.000144  -0.048078  -0.027783
     8  C    0.496317  -0.011461   0.387324   0.005058  -0.029801  -0.067675
     9  H   -0.000073   0.000003   0.000074  -0.004174   0.002203  -0.000173
    10  H   -0.000000   0.000000   0.000002   0.000037   0.000002   0.000000
    11  H    0.000000  -0.000000  -0.000000   0.000002  -0.000000  -0.000000
    12  C   -0.117041   0.000710   0.014322   0.349704   0.330086  -0.094685
    13  C    5.188066   0.381870  -0.020893   0.000381  -0.077704   0.511363
    14  H    0.381870   0.511852  -0.002672   0.000040   0.006461  -0.020434
    15  H   -0.020893  -0.002672   0.487745  -0.000317  -0.001622   0.002592
    16  H    0.000381   0.000040  -0.000317   0.460948  -0.014441  -0.002637
    17  C   -0.077704   0.006461  -0.001622  -0.014441   5.201101   0.406101
    18  C    0.511363  -0.020434   0.002592  -0.002637   0.406101   5.034075
    19  C   -0.006595  -0.000074  -0.000009   0.001449   0.028386  -0.121480
    20  C    0.026476  -0.000012   0.000004   0.002601   0.275756   0.051808
    21  C    0.000374   0.000029  -0.000001  -0.002520  -0.145283   0.032828
    22  C    0.000079  -0.000000   0.000000   0.000878   0.007904  -0.000132
    23  C   -0.000032  -0.000000   0.000000  -0.000144  -0.003478   0.000528
    24  C    0.000161  -0.000001  -0.000000   0.000060   0.021961  -0.007572
    25  H    0.000034   0.000001  -0.000002   0.007953  -0.019418  -0.001258
    26  H    0.000000   0.000000  -0.000000   0.000023  -0.000728  -0.000022
    27  H    0.000000  -0.000000   0.000000  -0.000001   0.000222   0.000001
    28  H   -0.000002  -0.000000  -0.000000   0.000000  -0.000091  -0.000058
    29  C   -0.128840  -0.011382   0.000004  -0.000275   0.023543   0.283494
    30  C    0.030467   0.000470   0.000050  -0.000090  -0.125357   0.031139
    31  C    0.000422   0.000105   0.000000   0.000001  -0.005508   0.017821
    32  C   -0.000764  -0.000183  -0.000000  -0.000000  -0.000249  -0.001044
    33  C    0.002273   0.001610   0.000005   0.000000   0.000730   0.002015
    34  C   -0.046310   0.001092   0.000059   0.000026   0.027115  -0.117421
    35  H    0.000009   0.000001   0.000000   0.000000   0.000068  -0.000245
    36  H   -0.000009  -0.000001  -0.000000  -0.000000  -0.000007   0.000181
    37  H    0.000204   0.000044   0.000000   0.000000   0.000002  -0.000728
    38  H    0.002514   0.006286   0.000024   0.000001   0.000103  -0.011385
    39  H   -0.000001   0.000000   0.000042   0.000000   0.000002  -0.000000
    40  H    0.000408   0.000044  -0.001435   0.000048  -0.000006  -0.000017
              19         20         21         22         23         24
     1  C   -0.000000  -0.000010   0.000003   0.000000  -0.000000   0.000000
     2  C   -0.000010   0.000177  -0.000005   0.000000   0.000000  -0.000000
     3  C    0.000189  -0.003369   0.000200  -0.000035  -0.000000  -0.000000
     4  C   -0.000011   0.000274   0.000274   0.000007   0.000003  -0.000002
     5  C    0.000001   0.000008  -0.000021  -0.000000   0.000000  -0.000000
     6  C   -0.000000  -0.000002   0.000001   0.000000   0.000000  -0.000000
     7  C    0.001549   0.002344   0.006323  -0.000398  -0.000015   0.000132
     8  C   -0.000601   0.001583  -0.000394  -0.000017   0.000007  -0.000041
     9  H   -0.000004   0.000156   0.000202   0.000004   0.000001  -0.000001
    10  H    0.000000   0.000001   0.000000   0.000000  -0.000000   0.000000
    11  H    0.000000   0.000000  -0.000000  -0.000000  -0.000000   0.000000
    12  C    0.040195  -0.153217  -0.074742   0.000286  -0.000969   0.000751
    13  C   -0.006595   0.026476   0.000374   0.000079  -0.000032   0.000161
    14  H   -0.000074  -0.000012   0.000029  -0.000000  -0.000000  -0.000001
    15  H   -0.000009   0.000004  -0.000001   0.000000   0.000000  -0.000000
    16  H    0.001449   0.002601  -0.002520   0.000878  -0.000144   0.000060
    17  C    0.028386   0.275756  -0.145283   0.007904  -0.003478   0.021961
    18  C   -0.121480   0.051808   0.032828  -0.000132   0.000528  -0.007572
    19  C    5.042134   0.392339  -0.099761  -0.034168  -0.068979   0.530168
    20  C    0.392339   5.081021   0.523111  -0.065595  -0.034643  -0.091434
    21  C   -0.099761   0.523111   5.177716   0.532867  -0.022057  -0.098325
    22  C   -0.034168  -0.065595   0.532867   4.895960   0.494473  -0.023903
    23  C   -0.068979  -0.034643  -0.022057   0.494473   4.881645   0.536443
    24  C    0.530168  -0.091434  -0.098325  -0.023903   0.536443   5.134736
    25  H    0.009627  -0.015147   0.390605  -0.031494   0.002808   0.000540
    26  H    0.001746   0.005949  -0.027689   0.405442  -0.037463   0.004567
    27  H    0.004652   0.001847   0.004218  -0.036561   0.407122  -0.028929
    28  H   -0.022511   0.007323   0.001468   0.001101  -0.021240   0.387934
    29  C    0.027224  -0.112437  -0.008477   0.000014  -0.000228   0.028858
    30  C    0.299001   0.031969   0.026527  -0.002590   0.004130  -0.132050
    31  C   -0.128547   0.026467   0.000025  -0.000653   0.003236  -0.043941
    32  C    0.003113   0.000379   0.000090  -0.000003  -0.000175   0.002976
    33  C   -0.001092  -0.000438  -0.000060   0.000004   0.000003  -0.000665
    34  C    0.015666  -0.003446   0.000440  -0.000044   0.000063   0.000261
    35  H   -0.010954   0.000267   0.000105  -0.000210   0.001999   0.001688
    36  H   -0.000670   0.000007   0.000001  -0.000001   0.000006   0.000165
    37  H    0.000177  -0.000011  -0.000000   0.000000  -0.000000  -0.000007
    38  H   -0.000256   0.000003  -0.000000  -0.000000  -0.000000   0.000016
    39  H   -0.000000   0.000000   0.000000   0.000000   0.000000  -0.000000
    40  H   -0.000001   0.000006   0.000003   0.000000  -0.000000   0.000000
              25         26         27         28         29         30
     1  C   -0.000003   0.000000  -0.000000   0.000000   0.000000  -0.000000
     2  C    0.000010  -0.000000   0.000000  -0.000000   0.000018   0.000003
     3  C    0.000458   0.000001  -0.000000   0.000000  -0.000837  -0.000063
     4  C    0.000846  -0.000002   0.000000  -0.000000  -0.000012   0.000012
     5  C   -0.000003  -0.000000   0.000000  -0.000000   0.000000  -0.000000
     6  C   -0.000001   0.000000  -0.000000  -0.000000  -0.000000   0.000000
     7  C    0.004617   0.000014  -0.000001   0.000002  -0.004058  -0.001287
     8  C   -0.000088  -0.000001   0.000000   0.000000   0.000608   0.000686
     9  H    0.000262  -0.000000  -0.000000   0.000000  -0.000002   0.000002
    10  H    0.000000   0.000000   0.000000  -0.000000   0.000000   0.000000
    11  H   -0.000000   0.000000   0.000000   0.000000  -0.000000  -0.000000
    12  C    0.006630   0.000277  -0.000013   0.000027   0.038684  -0.008718
    13  C    0.000034   0.000000   0.000000  -0.000002  -0.128840   0.030467
    14  H    0.000001   0.000000  -0.000000  -0.000000  -0.011382   0.000470
    15  H   -0.000002  -0.000000   0.000000  -0.000000   0.000004   0.000050
    16  H    0.007953   0.000023  -0.000001   0.000000  -0.000275  -0.000090
    17  C   -0.019418  -0.000728   0.000222  -0.000091   0.023543  -0.125357
    18  C   -0.001258  -0.000022   0.000001  -0.000058   0.283494   0.031139
    19  C    0.009627   0.001746   0.004652  -0.022511   0.027224   0.299001
    20  C   -0.015147   0.005949   0.001847   0.007323  -0.112437   0.031969
    21  C    0.390605  -0.027689   0.004218   0.001468  -0.008477   0.026527
    22  C   -0.031494   0.405442  -0.036561   0.001101   0.000014  -0.002590
    23  C    0.002808  -0.037463   0.407122  -0.021240  -0.000228   0.004130
    24  C    0.000540   0.004567  -0.028929   0.387934   0.028858  -0.132050
    25  H    0.514966  -0.004119  -0.000375   0.000060   0.000007   0.000094
    26  H   -0.004119   0.514676  -0.004025  -0.000392  -0.000003   0.000165
    27  H   -0.000375  -0.004025   0.515436  -0.003732  -0.000007  -0.000766
    28  H    0.000060  -0.000392  -0.003732   0.515868   0.000636  -0.010798
    29  C    0.000007  -0.000003  -0.000007   0.000636   5.039533   0.404602
    30  C    0.000094   0.000165  -0.000766  -0.010798   0.404602   5.040858
    31  C    0.000010  -0.000007   0.000179   0.001456  -0.093340   0.531824
    32  C   -0.000000  -0.000000   0.000006   0.001902  -0.029648  -0.071622
[...]
 .00001538,0.00000316,0.00000223,0.00000218,0.00000175,0.00000426,0.000
 01036,-0.00000570,-0.00002719,-0.00000279,-0.00059259,-0.00089760,0.00
 053022,0.00143521,0.00316095,0.00531335,-0.01207994,0.00754006,0.00497
 372,0.09316720,-0.08338083,-0.02742834,0.01975384,-0.00344346,-0.01062
 242,0.00377985,-0.00016931,0.00503654,-0.00161879,-0.00150999,-0.00219
 275,-0.10235762,0.07993160,0.00000120,-0.00000189,-0.00000137,0.000002
 46,-0.00000216,-0.00000198,-0.00000151,0.00000787,0.00001579,-0.000000
 88,-0.00000211,-0.00000195,-0.00000105,-0.00000101,0.00000280,0.000003
 31,-0.00000159,-0.00000031,-0.00001769,0.00002216,-0.00002912,-0.00003
 343,-0.00006732,0.00004173,0.00000028,0.00000297,0.00000179,0.00000026
 ,0.00000048,-0.00000059,0.00000049,0.00000044,0.00000001,0.00005523,-0
 .00001100,0.00004277,0.00003807,0.00001687,-0.00001765,0.00003967,-0.0
 0000270,0.00006012,0.00000414,-0.00000123,0.00000015,-0.00000706,0.000
 00280,-0.00000033,-0.00008222,0.00016593,-0.00006202,-0.00038997,-0.00
 038524,-0.00013567,0.00102231,-0.00080583,0.00022997,-0.00001946,0.000
 04906,-0.00043460,0.00010907,-0.00005964,-0.00004533,0.00004861,-0.000
 01325,-0.00001190,-0.00007682,-0.00000297,0.00001617,0.00007049,0.0000
 8309,0.00002907,0.00001763,0.00001679,-0.00004621,0.00000237,0.0000051
 4,-0.00000173,0.00000795,0.00001827,-0.00001547,-0.00000720,-0.0000023
 6,-0.00002206,-0.00034592,0.00040889,-0.00109725,0.00330764,0.00555867
 ,-0.00124605,0.02311928,-0.01052443,-0.00546892,0.09540570,-0.02708616
 ,-0.09020906,-0.01386845,0.00478276,0.00928170,-0.00013505,0.00468547,
 0.00112241,-0.00167163,-0.00191475,-0.00063676,-0.10531847,0.02655810,
 0.08887771,0.00000014,0.00000259,-0.00000023,-0.00001275,0.00000397,0.
 00001320,0.00002742,-0.00001073,-0.00001392,-0.00001055,0.00000801,0.0
 0000305,-0.00000182,-0.00000221,-0.00000358,-0.00000994,0.00000368,0.0
 0000445,0.00000818,-0.00001593,0.00004829,0.00000845,0.00000152,-0.000
 07503,0.00000063,-0.00000149,-0.00000586,-0.00000137,0.00000053,0.0000
 0125,-0.00000078,0.00000050,0.00000019,-0.00005288,-0.00006422,0.00010
 774,0.00002355,0.00007839,0.00007343,-0.00002337,-0.00000206,-0.000006
 82,-0.00001658,0.00001515,0.00000864,-0.00004622,0.00001484,0.00001766
 ,-0.00043406,0.00004532,-0.00001467,0.00022668,-0.00088266,0.00101566,
 -0.00007683,-0.00033808,-0.00039239,-0.00007393,0.00016106,-0.00008630
 ,0.00004305,-0.00001220,0.00005653,-0.00002469,0.00002878,-0.00001175,
 0.00004748,-0.00006810,-0.00003937,-0.00002023,0.00001367,0.00003900,-
 0.00000138,0.00000178,-0.00000651,0.00000759,0.00000113,0.00000563,0.0
 0000110,-0.00000065,0.00000473,0.00005836,-0.00000649,0.00003994,-0.00
 197578,0.00512165,0.00334390,-0.00111914,0.00043804,-0.00033761,0.0006
 6919,0.00462166,-0.00014186,0.00981407,0.00599869,-0.01394293,-0.09363
 506,-0.03507694,0.09455694,-0.00595933,-0.01243951,0.02311546,0.000271
 50,0.00036417,-0.00069525,-0.00028129,-0.00171811,-0.00058858,0.092912
 72,-0.00000060,0.00000067,-0.00000008,-0.00000426,-0.00000174,0.000003
 82,0.00000612,-0.00000285,-0.00000038,-0.00000156,0.00000005,-0.000001
 45,-0.00000235,-0.00000042,-0.00000062,-0.00000250,0.00000046,0.000002
 38,0.00000373,0.00004170,-0.00001440,-0.00005323,-0.00004802,0.0000237
 9,0.00000070,0.00000020,-0.00000122,0.00000018,0.00000045,-0.00000030,
 0.00000029,0.00000040,-0.00000005,0.00002171,0.00000986,-0.00005996,0.
 00007116,0.00008213,0.00009132,-0.00000270,-0.00002728,-0.00000572,0.0
 0000890,0.00000483,0.00000303,0.00001406,-0.00001109,-0.00000837,-0.00
 002686,-0.00019097,-0.00022485,-0.00000767,0.00045714,-0.00035274,-0.0
 0046079,-0.00041883,-0.00025206,0.00007644,-0.00007852,0.00008187,0.00
 000367,0.00007367,0.00001589,0.00002054,-0.00002120,0.00000871,-0.0000
 8857,-0.00000637,-0.00001762,0.00006237,-0.00001891,0.00001463,-0.0000
 0616,-0.00000440,0.00000299,-0.00000211,0.00000867,0.00001011,0.000003
 14,0.00000022,0.00000338,-0.00001810,0.00010061,0.00001055,0.00487286,
 0.00353478,0.00175550,0.00057857,-0.00079712,-0.00065021,0.00499124,-0
 .00010176,0.00386370,-0.01091689,-0.00475999,0.01890498,-0.03546286,-0
 .09617318,0.10506564,0.00457895,0.00752761,-0.01010426,-0.00049052,-0.
 00039674,0.00092335,-0.00118790,-0.00088390,-0.00180961,0.03544797,0.0
 9362230,-0.00000402,-0.00000285,-0.00000328,0.00001474,-0.00000448,-0.
 00001037,-0.00003026,0.00001262,0.00001570,0.00001516,-0.00001253,-0.0
 0000502,0.00000041,0.00000292,0.00000379,0.00001023,-0.00000589,-0.000
 00319,0.00002034,0.00000745,0.00000518,-0.00000733,-0.00002602,-0.0000
 2145,-0.00000073,0.00000344,0.00000499,0.00000241,0.,-0.00000375,0.000
 00318,-0.00000001,-0.00000128,-0.00000182,0.00001845,-0.00004907,0.000
 08771,0.00008040,0.00002474,-0.00000859,-0.00000444,-0.00001946,0.0000
 1697,-0.00000604,0.00000296,0.00001733,-0.00000883,-0.00001339,0.00006
 632,-0.00028507,-0.00010442,-0.00006832,0.00044692,-0.00032096,-0.0002
 4483,-0.00035832,-0.00029953,0.00002195,0.00000403,0.00002158,0.000039
 94,0.00002753,0.00002225,-0.00000518,0.00000134,0.00000048,-0.00001206
 ,-0.00003468,-0.00003084,-0.00002490,0.00006002,-0.00001156,0.00000198
 ,-0.00000415,-0.00000417,0.00001002,0.00000741,-0.00000195,0.00000049,
 0.00000575,-0.00000238,0.00005684,-0.00000305,0.00004603,0.00366864,0.
 00150915,0.00339988,-0.00052085,-0.00051792,0.00020419,-0.00060080,0.0
 0419724,0.00214833,0.00680249,0.00351487,-0.00792954,0.09500824,0.1047
 1920,-0.25171766,0.00227516,0.00539016,-0.00599191,0.00035187,0.000149
 18,-0.00050688,-0.00123181,-0.00132909,-0.00048819,-0.10442150,-0.1154
 6559,0.26240319,-0.00000440,-0.00000339,-0.00000992,0.00001763,-0.0000
 0709,0.00000104,-0.00001769,0.00006194,0.00003592,0.00001306,-0.000008
 59,-0.00000968,-0.00000413,-0.00000253,0.00000550,0.00001546,-0.000005
 68,-0.00000352,-0.00006349,0.00005587,-0.00005980,-0.00009373,-0.00005
 200,0.00001124,-0.00000116,0.00000668,0.00000643,0.00000243,-0.0000008
 6,-0.00000419,0.00000355,-0.00000038,-0.00000205,0.00009769,0.00005968
 ,-0.00012477,-0.00221687,-0.00020008,0.00122430,-0.00442770,0.00231103
 ,0.00349863,-0.00001865,-0.00000214,0.00000712,0.00003958,0.00001200,0
 .00000536,0.00007528,0.00002044,-0.00005455,-0.00089128,0.00026720,-0.
 00150597,0.00064493,-0.00028893,0.00041407,-0.00004737,-0.00029098,-0.
 00018311,0.00002294,0.00013829,0.00001974,0.00000907,-0.00002777,-0.00
 000018,0.00002467,-0.00002939,0.00002660,-0.00020434,-0.00006542,0.000
 10350,-0.00001748,-0.00002845,0.00000629,-0.00000369,0.00000130,-0.000
 00486,-0.00001166,-0.00001112,0.00001667,0.00002294,0.00002205,0.00000
 875,0.01009688,-0.00931988,0.00392108,0.00085458,0.00063474,0.00391820
 ,-0.00064507,-0.00053013,0.00070565,-0.00216767,0.00386920,0.00492191,
 -0.00932995,0.02151162,-0.01458678,-0.11453727,0.10668581,-0.05915210,
 -0.00025493,-0.00038046,-0.00039904,-0.00054738,0.00096565,-0.00069069
 ,-0.00034203,-0.00202892,-0.00130980,0.12391409,-0.00000184,-0.0000059
 4,-0.00001273,-0.00000183,-0.00000250,0.00001611,0.00002220,0.00007713
 ,0.00000094,0.00001082,-0.00000687,-0.00000565,-0.00001050,-0.00000636
 ,-0.00000132,0.00000665,-0.00000157,0.00000452,0.00010677,-0.00006137,
 -0.00006440,-0.00009481,0.00031381,-0.00048151,-0.00000009,0.00000451,
 -0.00000313,0.00000127,-0.00000047,-0.00000178,0.00000158,0.00000128,-
 0.00000123,0.00005907,0.00002037,0.00000604,0.00087452,-0.00113447,-0.
 00085259,0.00316331,0.00132039,-0.00149914,-0.00000101,-0.00001936,-0.
 00000219,0.00000854,0.00002898,0.00002794,-0.00012310,-0.00000989,0.00
 014042,0.00040350,-0.00182453,-0.00081857,0.00076483,0.00000948,0.0001
 6114,-0.00017950,-0.00030774,-0.00021971,0.00005405,0.00011602,0.00007
 843,-0.00003692,-0.00001781,0.00002331,0.00004689,-0.00001975,-0.00000
 123,-0.00020955,-0.00010846,0.00011117,-0.00002898,-0.00002974,0.00000
 664,-0.00000641,-0.00000265,0.00000019,-0.00001081,-0.00001581,0.00001
 760,0.00002730,0.00003379,0.00001105,0.00551198,-0.00621736,0.00488731
 ,0.00015221,0.00307708,0.00344289,-0.00049560,0.00013447,-0.00042928,0
 .00430793,0.00419065,0.00130684,0.00406800,-0.00462070,0.00638491,0.10
 691756,-0.20707862,0.11260454,-0.00034649,-0.00060005,-0.00042788,0.00
 011649,-0.00033735,0.00030806,-0.00173377,-0.00152475,-0.00209132,-0.1
 2334067,0.21462055,0.00000630,-0.00000887,-0.00000160,-0.00001436,-0.0
 0000435,0.00000270,0.00006785,-0.00003296,0.00009359,-0.00004380,0.000
 01507,0.00000103,-0.00000658,0.00000066,0.00000794,-0.00000655,0.00000
 268,0.00001070,-0.00009188,-0.00002356,0.00005509,0.00002668,-0.000523
 54,0.00042120,0.00000393,0.00000274,-0.00001036,-0.00000524,0.00000343
 ,0.00000563,-0.00000307,0.00000355,0.00000194,-0.00010044,0.00001949,0
 .00016952,-0.00007663,0.00016342,-0.00126769,0.00244928,-0.00072871,0.
 00108835,0.00000761,-0.00000089,-0.00002071,0.00000570,0.00001402,0.00
 001800,0.00011196,-0.00000887,-0.00010259,-0.00173215,-0.00069926,0.00
 022699,-0.00087525,0.00112335,0.00012854,-0.00030541,-0.00011007,-0.00
 018175,0.00010950,0.00000196,0.00010526,0.00001260,0.00001559,-0.00005
 610,-0.00006740,0.00006892,-0.00000758,0.00028196,-0.00001711,-0.00040
 870,0.00001099,0.00000422,-0.00005559,0.00000459,-0.00000617,-0.000003
 49,0.00001559,0.00001900,-0.00004627,0.00000290,0.00001493,0.00004255,
 -0.01422736,0.01836123,-0.00766997,0.00446744,0.00304350,-0.00180771,0
 .00070033,-0.00040675,-0.00072118,0.00439648,0.00167056,0.00239111,0.0
 0676691,-0.00948518,0.00907769,-0.05939605,0.11280536,-0.11991527,-0.0
 0043712,-0.00039669,-0.00032247,0.00035572,-0.00046875,0.00025300,-0.0
 0167247,-0.00181618,-0.00076159,0.05924618,-0.12262441,0.11925360,-0.2
 1711634,0.05704314,-0.13212848,-0.01555999,0.00559528,-0.01881374,-0.0
 0235741,0.00376440,0.00304545,-0.00009814,-0.00017213,0.00105159,0.002
 08973,0.00196312,0.00112198,0.00657701,-0.00097041,0.00410280,-0.00029
 725,0.00021317,-0.00119769,-0.00007529,0.00007343,-0.00000300,-0.00015
 528,-0.00036733,-0.00007404,0.00019034,-0.00001854,0.00028472,0.000077
 68,-0.00147739,-0.00037154,-0.00036373,0.00003713,0.00022102,0.0000015
 2,0.00000655,0.00005104,-0.00002453,0.00000160,0.00001387,-0.00003080,
 -0.00001598,-0.00000700,-0.00000928,-0.00003356,-0.00001392,0.00002290
 ,0.00010187,-0.00001088,-0.00002210,0.00000819,-0.00000825,-0.00000995
 ,0.00000920,-0.00001293,-0.00002580,-0.00001607,0.00005003,0.00000201,
 0.00000898,-0.00001099,-0.00000350,0.00000118,0.00000438,-0.00000537,0
 .00000697,-0.00000530,-0.00000071,0.00000216,0.00000200,-0.00000296,-0
 .00000652,0.00000977,0.00000034,0.00000185,-0.00000360,-0.00000222,0.0
 0000267,-0.00000114,-0.00000450,0.00000220,-0.00000080,0.00003082,-0.0
 0001529,-0.00001450,-0.00001039,0.00000512,0.00000577,0.00000173,-0.00
 000759,0.00000624,-0.00001520,0.00000832,0.00000857,-0.00000085,0.0000
 0224,-0.00000532,-0.00002117,0.00001189,0.00000390,-0.00000211,0.00000
 282,-0.00000092,-0.00000302,0.00000034,0.00000045,-0.00000365,-0.00000
 030,0.00000463,0.00000436,0.00000027,-0.00000473,0.22685803,0.05716435
 ,-0.05642746,0.03962461,0.00737664,0.00106456,0.00714552,0.00402225,0.
 00622325,-0.00157006,-0.00002731,-0.00074877,-0.00046340,0.00172243,0.
 00673208,-0.00117045,-0.00260950,0.00412740,-0.00199045,0.00019795,0.0
 0002732,0.00048519,-0.00005351,-0.00009856,0.00002811,-0.00037896,-0.0
 0103340,0.00011287,-0.00009325,0.00011791,-0.00014612,-0.00146980,-0.0
 0340038,0.00043772,0.00004210,-0.00004154,-0.00014683,-0.00000032,0.00
 002652,-0.00000669,0.00000562,0.00000080,-0.00000389,-0.00005737,0.000
 04385,0.00000806,-0.00003341,-0.00001375,0.00002864,-0.00003882,-0.000
 01816,0.00005341,0.00002128,-0.00000679,-0.00000815,0.00000266,-0.0000
 0286,0.00000589,0.00001349,0.00000864,-0.00001613,0.00000317,-0.000006
 74,-0.00000064,0.00000014,-0.00000289,-0.00000188,0.00000225,-0.000005
 45,0.00000269,-0.00000073,-0.00000124,0.00000060,0.00000138,0.00000664
 ,-0.00000260,0.00000127,-0.00000066,0.00000339,0.00000146,-0.00000039,
 0.00000108,0.00000174,-0.00000051,0.00000025,-0.00002528,0.00000350,0.
 00000798,0.00000902,-0.00000647,-0.00000467,-0.00000326,0.00000260,0.0
 0000049,0.00000750,-0.00000347,-0.00000443,-0.00000118,-0.00000151,0.0
 0000313,0.00000616,-0.00000327,-0.00000728,0.00000191,-0.00000086,0.00
 000070,0.00000132,-0.00000008,-0.00000006,0.00000135,0.00000117,-0.000
 00074,-0.00000038,0.00000115,0.00000316,-0.06412739,0.04695558,-0.1321
 1566,0.04001721,-0.16801730,0.01023686,-0.00319794,0.01107859,0.002714
 74,-0.00138299,0.00030506,0.00105928,-0.00037676,-0.00063244,0.0016498
 1,-0.00141622,-0.00546156,-0.02511682,0.00813358,-0.01342152,0.0003394
 1,-0.00012598,0.00049036,-0.00005469,-0.00001238,-0.00000155,-0.000060
 13,0.00009847,0.00005823,-0.00123094,0.00041470,-0.00079721,0.00047149
 ,0.00015225,0.00101968,0.00012975,-0.00005365,-0.00008072,0.00000603,0
 .00000642,-0.00001220,0.00000312,-0.00000161,-0.00000116,0.00001520,0.
 00002635,-0.00000671,0.00000445,-0.00000054,0.00000621,-0.00001426,-0.
 00005623,0.00001444,-0.00000010,0.00000538,-0.00000337,-0.00000103,-0.
 00000351,0.00000159,0.00001239,-0.00000219,-0.00000152,0.00000167,-0.0
 0000066,-0.00000310,0.00000010,0.00000221,0.00000287,-0.00000100,-0.00
 000005,-0.00000098,0.00000251,0.00000156,0.00000028,-0.00000050,-0.000
 00253,-0.00000074,0.00000016,-0.00000157,-0.00000105,-0.00000074,0.000
 00063,-0.00000034,-0.00000098,-0.00000059,0.00000018,0.00000423,0.0000
 0278,-0.00000241,-0.00000059,0.00000164,0.00000075,-0.00000154,-0.0000
 0193,0.00000035,-0.00000013,0.00000232,0.00000177,-0.00000110,-0.00000
 105,-0.00000278,-0.00000229,-0.00000123,0.00000066,0.00000003,0.000000
 96,-0.00000005,-0.00000115,-0.00000012,-0.00000008,0.00000053,0.000000
 30,0.00000122,0.00000159,0.00000155,-0.00000052,0.14230906,-0.04266406
 ,0.17475420,0.00175261,0.00265145,0.02794520,-0.05884673,0.01052135,0.
 02644708,0.00690619,-0.00288068,-0.02286334,-0.00281386,0.00312509,-0.
 00300904,-0.00117068,0.00017562,-0.00024482,-0.00365487,0.00418858,0.0
 0136029,0.00037514,-0.00144626,-0.00013518,-0.00074063,0.00038198,-0.0
 0027883,0.00029278,-0.00008360,-0.00129126,-0.00003357,-0.00041898,0.0
 0005870,-0.00007093,0.00013922,0.00134719,0.00018085,-0.00000740,0.000
 03250,-0.00009752,0.00000382,0.00025872,-0.00005526,-0.00002891,-0.000
 03281,-0.00152813,-0.00054354,0.00020832,0.00000908,-0.00011982,0.0000
 0319,0.00009483,-0.00004536,0.00002939,0.00003021,-0.00005402,0.000068
 33,0.00001727,-0.00001374,0.00000996,-0.00002364,0.00004176,-0.0000435
 4,0.00003425,-0.00002399,0.00000843,0.00000378,-0.00000071,-0.00000475
 ,0.00001551,-0.00002429,0.00001401,-0.00001452,-0.00000079,0.00000994,
 -0.00000046,0.00000168,-0.00000622,0.00000036,-0.00000654,0.00000765,0
 .00000205,-0.00000231,0.00000256,0.00000535,-0.00000291,-0.00000047,-0
 .00005215,-0.00002264,0.00006254,0.00001461,-0.00001386,0.00000211,0.0
 0000212,-0.00000167,-0.00000033,0.00001358,-0.00000666,-0.00000304,-0.
 00000463,-0.00000787,0.00000243,0.00002069,0.00001024,-0.00001726,0.00
 000493,-0.00000468,0.00000075,0.00000545,-0.00000225,-0.00000053,0.000
 00358,0.00000224,-0.00000423,-0.00001122,-0.00000384,0.00001601,0.0003
 6508,-0.00168693,-0.00035876,0.05896851,0.00024598,0.00251136,-0.01054
 947,0.00994390,-0.04477871,-0.03488727,0.00050483,0.00436800,0.0072446
 2,0.00304935,0.00526844,0.00085833,0.00042812,-0.00081484,0.00011809,0
 .00401171,0.00611163,-0.00113933,-0.00240749,-0.00264792,0.00085180,-0
 .00056857,0.00061282,-0.00035027,0.00005969,0.00028664,0.00044943,-0.0
 0042898,-0.00102535,0.00006200,0.00004355,0.00005200,-0.00051516,0.000
 84867,-0.00052036,0.00006756,0.00047762,-0.00064606,0.00004497,-0.0000
 2700,0.00002935,0.00002080,-0.00047838,0.00008872,0.00030896,0.0000081
 6,-0.00004605,-0.00002535,-0.00029884,0.00007730,0.00044319,-0.0000890
 2,0.00034438,-0.00031984,-0.00003701,-0.00002982,0.00006028,0.00004832
 ,-0.00009463,0.00003081,0.00000858,0.00001253,-0.00003434,0.00001977,-
 0.00001833,0.00000121,-0.00001719,-0.00000312,0.00001696,-0.00000053,0
 .00001523,-0.00001584,0.00000317,0.00000511,0.00000699,0.00000227,0.00
 000106,0.00000176,-0.00000025,0.00000131,0.00000039,0.00000059,0.00000
 056,0.00000126,0.00010502,-0.00003471,-0.00001564,0.00001277,0.0000356
 3,-0.00005220,-0.00001554,-0.00001102,0.00001897,-0.00001291,0.0000178
 8,-0.00001294,0.00001711,-0.00001834,-0.00000791,-0.00002509,0.0000034
 3,0.00002256,0.00000036,0.00000075,0.00000011,0.00000121,0.00000197,0.
 00000150,-0.00000129,0.00000110,0.00000293,0.00000174,0.00000445,0.000
 00549,-0.00164559,-0.00351779,0.00043545,-0.01378880,0.03435539,-0.001
 02142,-0.00035159,-0.00733745,0.02604346,-0.03368245,-0.33398806,0.003
 71142,-0.00277750,-0.01560640,-0.00356654,0.00091362,-0.00036322,-0.00
 037570,0.00018259,0.00065956,0.00205857,-0.00125983,0.00146350,0.00166
 800,-0.00035128,0.00005887,0.00051500,0.00046313,-0.00013216,0.0002392
 3,-0.00011148,-0.00082868,0.00007279,0.00004342,-0.00008000,-0.0001345
 4,-0.00000929,-0.00044894,-0.00051025,0.00051040,0.00009628,-0.0001862
 7,0.00005556,0.00035066,0.00000774,0.00005363,0.00003670,0.00040544,-0
 .00035096,0.00038682,0.00002923,-0.00006779,0.00003134,0.00028713,-0.0
 0006964,-0.00021829,0.00004484,-0.00025857,0.00012537,0.00002850,0.000
 00672,-0.00003185,-0.00008175,0.00005864,-0.00004525,0.00002780,-0.000
 02355,0.00002078,-0.00001315,0.00001357,-0.00000091,0.00002058,-0.0000
 1240,-0.00000117,-0.00001024,-0.00000427,0.00002014,-0.00000517,-0.000
 01019,-0.00000479,0.00000001,-0.00000469,0.00000294,-0.00000082,-0.000
 00158,-0.00000002,0.00000126,-0.00000085,-0.00000094,-0.00006749,-0.00
 003687,0.00004446,-0.00000042,-0.00001966,0.00002759,0.00001484,0.0000
 0039,-0.00000473,0.00000348,-0.00001233,0.00000833,-0.00000850,0.00000
 977,0.00000550,0.00001181,0.00000890,-0.00002083,0.00000271,-0.0000022
 8,-0.00000057,0.00000215,-0.00000165,-0.00000058,0.00000043,-0.0000002
 9,-0.00000267,-0.00000478,-0.00000352,0.00000669,0.00039150,0.00025506
 ,0.00071288,-0.02960089,0.03684913,0.35505907\\0.00000122,-0.00000340,
 -0.00000379,0.00000138,0.00000293,0.00000894,0.00001738,-0.00000774,-0
 .00000651,-0.00000448,-0.00000066,-0.00000668,0.00000602,0.00000069,0.
 00000651,-0.00000225,0.00000023,0.00000524,-0.00001213,0.00000716,0.00
 000841,0.00000422,-0.00001277,0.00000820,-0.00000058,0.00000120,0.0000
 0573,0.00000009,-0.00000368,0.00000222,0.00000015,0.00000037,0.0000035
 5,-0.00000787,0.00000032,0.00000400,0.00000100,0.00001504,-0.00001261,
 -0.00000438,-0.00000039,0.00000192,0.00000130,0.00000500,0.00000017,0.
 00000121,-0.00000044,-0.00000480,0.00000819,0.00000015,-0.00000818,0.0
 0000482,-0.00001178,0.00001134,-0.00001144,0.00000893,-0.00000150,0.00
 001156,-0.00000386,-0.00001243,-0.00001287,0.00000191,0.00000999,0.000
 00690,0.00000100,-0.00001000,-0.00000798,0.00000646,-0.00000571,0.0000
 1442,-0.00000733,-0.00000394,0.00000560,-0.00000404,0.00000051,0.00000
 166,-0.00000599,-0.00000033,0.00000008,-0.00000324,0.00000090,-0.00000
 091,0.00000161,0.00000335,0.00000332,-0.00000573,0.00001184,-0.0000125
 8,0.00000923,-0.00000477,0.00000816,-0.00001264,0.00000341,-0.00000908
 ,0.00000855,-0.00000200,-0.00000097,-0.00000720,0.00000762,-0.00000927
 ,0.00001182,-0.00000782,-0.00000348,-0.00000051,-0.00000869,0.00000010
 ,0.00000094,-0.00000633,0.00000263,0.00000262,-0.00000205,0.00000297,0
 .00000061,-0.00000051,0.00000104,0.00000354,0.00000373,-0.00000513,0.0
 0000111,0.00000106\\\@
 The archive entry for this job was punched.


 IT IS THE GODS' CUSTOM TO BRING LOW ALL THINGS OF SURPASSING GREATNESS.
     -- HERODOTUS
 IT IS THE LOFTY PINE THAT BY THE STORM IS OFTENER TOSSED;
 TOWERS FALL WITH HEAVIER CRASH WHICH HIGHER SOAR.
     -- HORACE
 THE BIGGER THEY COME, THE HARDER THEY FALL.
     -- BOB FITZSIMONS HEAVYWEIGHT CHAMPION, 1897-1899
 Job cpu time:       4 days 23 hours  8 minutes 45.7 seconds.
 Elapsed time:       0 days  3 hours 47 minutes 12.8 seconds.
 File lengths (MBytes):  RWF=   3627 Int=      0 D2E=      0 Chk=     57 Scr=      1
 Normal termination of Gaussian 16 at Tue Nov 28 12:02:36 2023.
