 Entering Gaussian System, Link 0=g16
 Input=ph_35iprf_6_1_m062x.com
 Output=ph_35iprf_6_1_m062x.log
 Initial command:
 /arc/software/Gaussian/g16.c01/l1.exe "/tmp/slurm/41534/Gau-104462.inp" -scrdir="/tmp/slurm/41534/"
 Entering Link 1 = /arc/software/Gaussian/g16.c01/l1.exe PID=    104463.
  
 Copyright (c) 1988-2019, Gaussian, Inc.  All Rights Reserved.
  
 This is part of the Gaussian(R) 16 program.  It is based on
 the Gaussian(R) 09 system (copyright 2009, Gaussian, Inc.),
 the Gaussian(R) 03 system (copyright 2003, Gaussian, Inc.),
 the Gaussian(R) 98 system (copyright 1998, Gaussian, Inc.),
 the Gaussian(R) 94 system (copyright 1995, Gaussian, Inc.),
 the Gaussian 92(TM) system (copyright 1992, Gaussian, Inc.),
 the Gaussian 90(TM) system (copyright 1990, Gaussian, Inc.),
 the Gaussian 88(TM) system (copyright 1988, Gaussian, Inc.),
 the Gaussian 86(TM) system (copyright 1986, Carnegie Mellon
 University), and the Gaussian 82(TM) system (copyright 1983,
 Carnegie Mellon University). Gaussian is a federally registered
 trademark of Gaussian, Inc.
  
 This software contains proprietary and confidential information,
 including trade secrets, belonging to Gaussian, Inc.
  
 This software is provided under written license and may be
 used, copied, transmitted, or stored only in accord with that
 written license.
  
 The following legend is applicable only to US Government
 contracts under FAR:
  
                    RESTRICTED RIGHTS LEGEND
  
 Use, reproduction and disclosure by the US Government is
 subject to restrictions as set forth in subparagraphs (a)
 and (c) of the Commercial Computer Software - Restricted
 Rights clause in FAR 52.227-19.
  
 Gaussian, Inc.
 340 Quinnipiac St., Bldg. 40, Wallingford CT 06492
  
  
 ---------------------------------------------------------------
 Warning -- This program may not be used in any manner that
 competes with the business of Gaussian, Inc. or will provide
 assistance to any competitor of Gaussian, Inc.  The licensee
 of this program is prohibited from giving any competitor of
 Gaussian, Inc. access to this program.  By using this program,
 the user acknowledges that Gaussian, Inc. is engaged in the
 business of creating and licensing software in the field of
 computational chemistry and represents and warrants to the
 licensee that it is not a competitor of Gaussian, Inc. and that
 it will not use this program in any manner prohibited above.
 ---------------------------------------------------------------
  

 Cite this work as:
 Gaussian 16, Revision C.01,
 M. J. Frisch, G. W. Trucks, H. B. Schlegel, G. E. Scuseria, 
 M. A. Robb, J. R. Cheeseman, G. Scalmani, V. Barone, 
 G. A. Petersson, H. Nakatsuji, X. Li, M. Caricato, A. V. Marenich, 
 J. Bloino, B. G. Janesko, R. Gomperts, B. Mennucci, H. P. Hratchian, 
 J. V. Ortiz, A. F. Izmaylov, J. L. Sonnenberg, D. Williams-Young, 
 F. Ding, F. Lipparini, F. Egidi, J. Goings, B. Peng, A. Petrone, 
 T. Henderson, D. Ranasinghe, V. G. Zakrzewski, J. Gao, N. Rega, 
 G. Zheng, W. Liang, M. Hada, M. Ehara, K. Toyota, R. Fukuda, 
 J. Hasegawa, M. Ishida, T. Nakajima, Y. Honda, O. Kitao, H. Nakai, 
 T. Vreven, K. Throssell, J. A. Montgomery, Jr., J. E. Peralta, 
 F. Ogliaro, M. J. Bearpark, J. J. Heyd, E. N. Brothers, K. N. Kudin, 
 V. N. Staroverov, T. A. Keith, R. Kobayashi, J. Normand, 
 K. Raghavachari, A. P. Rendell, J. C. Burant, S. S. Iyengar, 
 J. Tomasi, M. Cossi, J. M. Millam, M. Klene, C. Adamo, R. Cammi, 
 J. W. Ochterski, R. L. Martin, K. Morokuma, O. Farkas, 
 J. B. Foresman, and D. J. Fox, Gaussian, Inc., Wallingford CT, 2019.
 
 ******************************************
 Gaussian 16:  ES64L-G16RevC.01  3-Jul-2019
                13-Nov-2023 
 ******************************************
 %nprocshared=32
 Will use up to   32 processors via shared memory.
 %mem=8000MB
 %chk=ph_35iprf_6_1_m062x.chk
 -----------------------------------------
 # opt freq=noraman m062x def2tzvp pop=nbo
 -----------------------------------------
 1/18=20,19=15,26=3,38=1/1,3;
 2/9=110,12=2,17=6,18=5,40=1/2;
 3/5=44,7=101,11=2,25=1,30=1,71=1,74=-55/1,2,3;
 4//1;
 5/5=2,38=5/2;
 6/7=2,8=2,9=2,10=2,28=1,40=1/1,7;
 7//1,2,3,16;
 1/18=20,19=15,26=3/3(2);
 2/9=110/2;
 99//99;
 2/9=110/2;
 3/5=44,7=101,11=2,25=1,30=1,71=1,74=-55/1,2,3;
 4/5=5,16=3,69=1/1;
 5/5=2,38=5/2;
 7//1,2,3,16;
 1/18=20,19=15,26=3/3(-5);
 2/9=110/2;
 6/7=2,8=2,9=2,10=2,19=2,28=1,40=1/1,7;
 99/9=1/99;
 ------------
 Structure697
 ------------
 Symbolic Z-matrix:
 Charge =  0 Multiplicity = 1
 C                    -4.8166   -1.9337    2.5505 
 C                    -4.3357   -0.8968    3.3461 
 C                    -3.8762    0.2738    2.7491 
 C                    -3.8951    0.4144    1.3643 
 C                    -4.3781   -0.6244    0.5724 
 C                    -4.8443   -1.8111    1.1545 
 H                    -3.5022    1.0793    3.3652 
 H                    -4.3733   -0.5069   -0.5017 
 H                    -4.3226   -0.9994    4.4218 
 H                    -5.1833   -2.8308    3.0283 
 C                    -6.3304   -5.0112   -1.2931 
 C                    -6.6512   -3.6875   -1.6291 
 C                    -6.156    -2.6588   -0.8152 
 C                    -5.3606   -2.9228    0.3042 
 C                    -5.0611   -4.2548    0.6068 
 C                    -5.5362   -5.3155   -0.1775 
 H                    -6.3966   -1.6288   -1.0344 
 H                    -4.4334   -4.4511    1.4636 
 H                    -3.5336    1.3236    0.9056 
 H                    -6.7048   -5.8174   -1.9098 
 C                    -7.5331   -3.3658   -2.8671 
 F                    -7.8472   -4.5319   -3.4536 
 C                    -5.1879   -6.7866    0.1815 
 F                    -5.7823   -7.5759   -0.7273 
 C                    -6.7638   -2.5125   -3.9194 
 F                    -7.476    -2.3145   -5.0299 
 F                    -6.4438   -1.2992   -3.4643 
 C                    -3.6558   -7.0553    0.0964 
 F                    -3.3548   -8.3385    0.3032 
 F                    -3.1632   -6.7234   -1.0988 
 F                    -5.6198   -3.0953   -4.2843 
 F                    -2.9612   -6.3624    1.0011 
 C                    -8.8702   -2.677    -2.4615 
 F                    -9.6793   -2.4882   -3.5053 
 F                    -9.5454   -3.4009   -1.5662 
 F                    -8.6837   -1.4733   -1.9161 
 C                    -5.7473   -7.1891    1.5787 
 F                    -5.5417   -8.478     1.8548 
 F                    -5.1847   -6.5032    2.576 
 F                    -7.0617   -6.9735    1.6633 
 

 GradGradGradGradGradGradGradGradGradGradGradGradGradGradGradGradGradGrad
 Berny optimization.
 Initialization pass.
                           ----------------------------
                           !    Initial Parameters    !
                           ! (Angstroms and Degrees)  !
 --------------------------                            --------------------------
 ! Name  Definition              Value          Derivative Info.                !
 --------------------------------------------------------------------------------
 ! R1    R(1,2)                  1.3926         estimate D2E/DX2                !
 ! R2    R(1,6)                  1.4016         estimate D2E/DX2                !
 ! R3    R(1,10)                 1.0805         estimate D2E/DX2                !
 ! R4    R(2,3)                  1.3921         estimate D2E/DX2                !
 ! R5    R(2,9)                  1.0807         estimate D2E/DX2                !
 ! R6    R(3,4)                  1.392          estimate D2E/DX2                !
 ! R7    R(3,7)                  1.0809         estimate D2E/DX2                !
 ! R8    R(4,5)                  1.3927         estimate D2E/DX2                !
 ! R9    R(4,19)                 1.0806         estimate D2E/DX2                !
 ! R10   R(5,6)                  1.4016         estimate D2E/DX2                !
 ! R11   R(5,8)                  1.0805         estimate D2E/DX2                !
 ! R12   R(6,14)                 1.4918         estimate D2E/DX2                !
 ! R13   R(11,12)                1.4029         estimate D2E/DX2                !
 ! R14   R(11,16)                1.4028         estimate D2E/DX2                !
 ! R15   R(11,20)                1.0819         estimate D2E/DX2                !
 ! R16   R(12,13)                1.4021         estimate D2E/DX2                !
 ! R17   R(12,21)                1.5537         estimate D2E/DX2                !
 ! R18   R(13,14)                1.3984         estimate D2E/DX2                !
 ! R19   R(13,17)                1.0802         estimate D2E/DX2                !
 ! R20   R(14,15)                1.3984         estimate D2E/DX2                !
 ! R21   R(15,16)                1.4021         estimate D2E/DX2                !
 ! R22   R(15,18)                1.0801         estimate D2E/DX2                !
 ! R23   R(16,23)                1.5538         estimate D2E/DX2                !
 ! R24   R(21,22)                1.3425         estimate D2E/DX2                !
 ! R25   R(21,25)                1.558          estimate D2E/DX2                !
 ! R26   R(21,33)                1.5578         estimate D2E/DX2                !
 ! R27   R(23,24)                1.3425         estimate D2E/DX2                !
 ! R28   R(23,28)                1.5578         estimate D2E/DX2                !
 ! R29   R(23,37)                1.5579         estimate D2E/DX2                !
 ! R30   R(25,26)                1.334          estimate D2E/DX2                !
 ! R31   R(25,27)                1.3348         estimate D2E/DX2                !
 ! R32   R(25,31)                1.3347         estimate D2E/DX2                !
 ! R33   R(28,29)                1.3342         estimate D2E/DX2                !
 ! R34   R(28,30)                1.3347         estimate D2E/DX2                !
 ! R35   R(28,32)                1.3346         estimate D2E/DX2                !
 ! R36   R(33,34)                1.3341         estimate D2E/DX2                !
 ! R37   R(33,35)                1.3347         estimate D2E/DX2                !
 ! R38   R(33,36)                1.3346         estimate D2E/DX2                !
 ! R39   R(37,38)                1.3341         estimate D2E/DX2                !
 ! R40   R(37,39)                1.3348         estimate D2E/DX2                !
 ! R41   R(37,40)                1.3346         estimate D2E/DX2                !
 ! A1    A(2,1,6)              120.7099         estimate D2E/DX2                !
 ! A2    A(2,1,10)             118.8643         estimate D2E/DX2                !
 ! A3    A(6,1,10)             120.4191         estimate D2E/DX2                !
 ! A4    A(1,2,3)              119.6757         estimate D2E/DX2                !
 ! A5    A(1,2,9)              120.1435         estimate D2E/DX2                !
 ! A6    A(3,2,9)              120.1805         estimate D2E/DX2                !
 ! A7    A(2,3,4)              120.4694         estimate D2E/DX2                !
 ! A8    A(2,3,7)              119.7644         estimate D2E/DX2                !
 ! A9    A(4,3,7)              119.7662         estimate D2E/DX2                !
 ! A10   A(3,4,5)              119.672          estimate D2E/DX2                !
 ! A11   A(3,4,19)             120.1793         estimate D2E/DX2                !
 ! A12   A(5,4,19)             120.1483         estimate D2E/DX2                !
 ! A13   A(4,5,6)              120.714          estimate D2E/DX2                !
 ! A14   A(4,5,8)              118.8549         estimate D2E/DX2                !
 ! A15   A(6,5,8)              120.4242         estimate D2E/DX2                !
 ! A16   A(1,6,5)              118.759          estimate D2E/DX2                !
 ! A17   A(1,6,14)             120.6202         estimate D2E/DX2                !
 ! A18   A(5,6,14)             120.6207         estimate D2E/DX2                !
 ! A19   A(12,11,16)           121.6425         estimate D2E/DX2                !
 ! A20   A(12,11,20)           119.1749         estimate D2E/DX2                !
 ! A21   A(16,11,20)           119.1826         estimate D2E/DX2                !
 ! A22   A(11,12,13)           118.1961         estimate D2E/DX2                !
 ! A23   A(11,12,21)           121.0662         estimate D2E/DX2                !
 ! A24   A(13,12,21)           120.7376         estimate D2E/DX2                !
 ! A25   A(12,13,14)           121.8074         estimate D2E/DX2                !
 ! A26   A(12,13,17)           120.207          estimate D2E/DX2                !
 ! A27   A(14,13,17)           117.9795         estimate D2E/DX2                !
 ! A28   A(6,14,13)            120.827          estimate D2E/DX2                !
 ! A29   A(6,14,15)            120.8216         estimate D2E/DX2                !
 ! A30   A(13,14,15)           118.3514         estimate D2E/DX2                !
 ! A31   A(14,15,16)           121.8009         estimate D2E/DX2                !
 ! A32   A(14,15,18)           117.9844         estimate D2E/DX2                !
 ! A33   A(16,15,18)           120.2086         estimate D2E/DX2                !
 ! A34   A(11,16,15)           118.2016         estimate D2E/DX2                !
 ! A35   A(11,16,23)           121.0655         estimate D2E/DX2                !
 ! A36   A(15,16,23)           120.7328         estimate D2E/DX2                !
 ! A37   A(12,21,22)           107.5209         estimate D2E/DX2                !
 ! A38   A(12,21,25)           111.7971         estimate D2E/DX2                !
 ! A39   A(12,21,33)           111.7952         estimate D2E/DX2                !
 ! A40   A(22,21,25)           107.2281         estimate D2E/DX2                !
 ! A41   A(22,21,33)           107.2762         estimate D2E/DX2                !
 ! A42   A(25,21,33)           110.9474         estimate D2E/DX2                !
 ! A43   A(16,23,24)           107.5171         estimate D2E/DX2                !
 ! A44   A(16,23,28)           111.786          estimate D2E/DX2                !
 ! A45   A(16,23,37)           111.7975         estimate D2E/DX2                !
 ! A46   A(24,23,28)           107.2814         estimate D2E/DX2                !
 ! A47   A(24,23,37)           107.232          estimate D2E/DX2                !
 ! A48   A(28,23,37)           110.9512         estimate D2E/DX2                !
 ! A49   A(21,25,26)           112.3292         estimate D2E/DX2                !
 ! A50   A(21,25,27)           112.7023         estimate D2E/DX2                !
 ! A51   A(21,25,31)           111.6369         estimate D2E/DX2                !
 ! A52   A(26,25,27)           106.0754         estimate D2E/DX2                !
 ! A53   A(26,25,31)           107.1459         estimate D2E/DX2                !
 ! A54   A(27,25,31)           106.537          estimate D2E/DX2                !
 ! A55   A(23,28,29)           112.2914         estimate D2E/DX2                !
 ! A56   A(23,28,30)           111.6551         estimate D2E/DX2                !
 ! A57   A(23,28,32)           112.662          estimate D2E/DX2                !
 ! A58   A(29,28,30)           107.1407         estimate D2E/DX2                !
 ! A59   A(29,28,32)           106.0732         estimate D2E/DX2                !
 ! A60   A(30,28,32)           106.61           estimate D2E/DX2                !
 ! A61   A(21,33,34)           112.2974         estimate D2E/DX2                !
 ! A62   A(21,33,35)           111.6562         estimate D2E/DX2                !
 ! A63   A(21,33,36)           112.6592         estimate D2E/DX2                !
 ! A64   A(34,33,35)           107.1438         estimate D2E/DX2                !
 ! A65   A(34,33,36)           106.0724         estimate D2E/DX2                !
 ! A66   A(35,33,36)           106.6029         estimate D2E/DX2                !
 ! A67   A(23,37,38)           112.3263         estimate D2E/DX2                !
 ! A68   A(23,37,39)           112.7049         estimate D2E/DX2                !
 ! A69   A(23,37,40)           111.6376         estimate D2E/DX2                !
 ! A70   A(38,37,39)           106.074          estimate D2E/DX2                !
 ! A71   A(38,37,40)           107.1412         estimate D2E/DX2                !
 ! A72   A(39,37,40)           106.5428         estimate D2E/DX2                !
 ! D1    D(6,1,2,3)             -0.0629         estimate D2E/DX2                !
 ! D2    D(6,1,2,9)            179.7275         estimate D2E/DX2                !
 ! D3    D(10,1,2,3)          -179.1256         estimate D2E/DX2                !
 ! D4    D(10,1,2,9)             0.6648         estimate D2E/DX2                !
 ! D5    D(2,1,6,5)              0.0228         estimate D2E/DX2                !
 ! D6    D(2,1,6,14)          -179.9646         estimate D2E/DX2                !
 ! D7    D(10,1,6,5)           179.0709         estimate D2E/DX2                !
 ! D8    D(10,1,6,14)           -0.9165         estimate D2E/DX2                !
 ! D9    D(1,2,3,4)              0.0369         estimate D2E/DX2                !
 ! D10   D(1,2,3,7)           -179.9703         estimate D2E/DX2                !
 ! D11   D(9,2,3,4)           -179.7534         estimate D2E/DX2                !
 ! D12   D(9,2,3,7)              0.2394         estimate D2E/DX2                !
 ! D13   D(2,3,4,5)              0.0288         estimate D2E/DX2                !
 ! D14   D(2,3,4,19)          -179.7558         estimate D2E/DX2                !
 ! D15   D(7,3,4,5)           -179.964          estimate D2E/DX2                !
 ! D16   D(7,3,4,19)             0.2514         estimate D2E/DX2                !
 ! D17   D(3,4,5,6)             -0.0696         estimate D2E/DX2                !
 ! D18   D(3,4,5,8)           -179.1144         estimate D2E/DX2                !
 ! D19   D(19,4,5,6)           179.7151         estimate D2E/DX2                !
 ! D20   D(19,4,5,8)             0.6702         estimate D2E/DX2                !
 ! D21   D(4,5,6,1)              0.0438         estimate D2E/DX2                !
 ! D22   D(4,5,6,14)          -179.9689         estimate D2E/DX2                !
 ! D23   D(8,5,6,1)            179.0736         estimate D2E/DX2                !
 ! D24   D(8,5,6,14)            -0.939          estimate D2E/DX2                !
 ! D25   D(1,6,14,13)          139.7513         estimate D2E/DX2                !
 ! D26   D(1,6,14,15)          -40.2507         estimate D2E/DX2                !
 ! D27   D(5,6,14,13)          -40.2358         estimate D2E/DX2                !
 ! D28   D(5,6,14,15)          139.7621         estimate D2E/DX2                !
 ! D29   D(16,11,12,13)         -0.0526         estimate D2E/DX2                !
 ! D30   D(16,11,12,21)       -179.9427         estimate D2E/DX2                !
 ! D31   D(20,11,12,13)        179.9521         estimate D2E/DX2                !
 ! D32   D(20,11,12,21)          0.062          estimate D2E/DX2                !
 ! D33   D(12,11,16,15)         -0.0447         estimate D2E/DX2                !
 ! D34   D(12,11,16,23)       -179.9372         estimate D2E/DX2                !
 ! D35   D(20,11,16,15)        179.9506         estimate D2E/DX2                !
 ! D36   D(20,11,16,23)          0.0581         estimate D2E/DX2                !
 ! D37   D(11,12,13,14)          0.1024         estimate D2E/DX2                !
 ! D38   D(11,12,13,17)       -178.9803         estimate D2E/DX2                !
 ! D39   D(21,12,13,14)        179.9929         estimate D2E/DX2                !
 ! D40   D(21,12,13,17)          0.9102         estimate D2E/DX2                !
 ! D41   D(11,12,21,22)         -0.618          estimate D2E/DX2                !
 ! D42   D(11,12,21,25)       -118.0536         estimate D2E/DX2                !
 ! D43   D(11,12,21,33)        116.8751         estimate D2E/DX2                !
 ! D44   D(13,12,21,22)        179.4947         estimate D2E/DX2                !
 ! D45   D(13,12,21,25)         62.0591         estimate D2E/DX2                !
 ! D46   D(13,12,21,33)        -63.0123         estimate D2E/DX2                !
 ! D47   D(12,13,14,6)         179.946          estimate D2E/DX2                !
 ! D48   D(12,13,14,15)         -0.052          estimate D2E/DX2                !
 ! D49   D(17,13,14,6)          -0.9517         estimate D2E/DX2                !
 ! D50   D(17,13,14,15)        179.0503         estimate D2E/DX2                !
 ! D51   D(6,14,15,16)         179.9511         estimate D2E/DX2                !
 ! D52   D(6,14,15,18)          -0.9477         estimate D2E/DX2                !
 ! D53   D(13,14,15,16)         -0.0509         estimate D2E/DX2                !
 ! D54   D(13,14,15,18)        179.0503         estimate D2E/DX2                !
 ! D55   D(14,15,16,11)          0.0979         estimate D2E/DX2                !
 ! D56   D(14,15,16,23)        179.9908         estimate D2E/DX2                !
 ! D57   D(18,15,16,11)       -178.9836         estimate D2E/DX2                !
 ! D58   D(18,15,16,23)          0.9092         estimate D2E/DX2                !
 ! D59   D(11,16,23,24)         -0.6412         estimate D2E/DX2                !
 ! D60   D(11,16,23,28)        116.8508         estimate D2E/DX2                !
 ! D61   D(11,16,23,37)       -118.0795         estimate D2E/DX2                !
 ! D62   D(15,16,23,24)        179.4691         estimate D2E/DX2                !
 ! D63   D(15,16,23,28)        -63.0389         estimate D2E/DX2                !
 ! D64   D(15,16,23,37)         62.0307         estimate D2E/DX2                !
 ! D65   D(12,21,25,26)        175.3067         estimate D2E/DX2                !
 ! D66   D(12,21,25,27)        -64.9366         estimate D2E/DX2                !
 ! D67   D(12,21,25,31)         54.9231         estimate D2E/DX2                !
 ! D68   D(22,21,25,26)         57.6953         estimate D2E/DX2                !
 ! D69   D(22,21,25,27)        177.452          estimate D2E/DX2                !
 ! D70   D(22,21,25,31)        -62.6883         estimate D2E/DX2                !
 ! D71   D(33,21,25,26)        -59.1535         estimate D2E/DX2                !
 ! D72   D(33,21,25,27)         60.6033         estimate D2E/DX2                !
 ! D73   D(33,21,25,31)       -179.5371         estimate D2E/DX2                !
 ! D74   D(12,21,33,34)       -175.2359         estimate D2E/DX2                !
 ! D75   D(12,21,33,35)        -54.8637         estimate D2E/DX2                !
 ! D76   D(12,21,33,36)         65.0646         estimate D2E/DX2                !
 ! D77   D(22,21,33,34)        -57.596          estimate D2E/DX2                !
 ! D78   D(22,21,33,35)         62.7762         estimate D2E/DX2                !
 ! D79   D(22,21,33,36)       -177.2955         estimate D2E/DX2                !
 ! D80   D(25,21,33,34)         59.2232         estimate D2E/DX2                !
 ! D81   D(25,21,33,35)        179.5954         estimate D2E/DX2                !
 ! D82   D(25,21,33,36)        -60.4763         estimate D2E/DX2                !
 ! D83   D(16,23,28,29)       -175.2376         estimate D2E/DX2                !
 ! D84   D(16,23,28,30)        -54.8744         estimate D2E/DX2                !
 ! D85   D(16,23,28,32)         65.0642         estimate D2E/DX2                !
 ! D86   D(24,23,28,29)        -57.6041         estimate D2E/DX2                !
 ! D87   D(24,23,28,30)         62.7591         estimate D2E/DX2                !
 ! D88   D(24,23,28,32)       -177.3022         estimate D2E/DX2                !
 ! D89   D(37,23,28,29)         59.225          estimate D2E/DX2                !
 ! D90   D(37,23,28,30)        179.5882         estimate D2E/DX2                !
 ! D91   D(37,23,28,32)        -60.4732         estimate D2E/DX2                !
 ! D92   D(16,23,37,38)        175.3            estimate D2E/DX2                !
 ! D93   D(16,23,37,39)        -64.9453         estimate D2E/DX2                !
 ! D94   D(16,23,37,40)         54.9241         estimate D2E/DX2                !
 ! D95   D(24,23,37,38)         57.6905         estimate D2E/DX2                !
 ! D96   D(24,23,37,39)        177.4452         estimate D2E/DX2                !
 ! D97   D(24,23,37,40)        -62.6854         estimate D2E/DX2                !
 ! D98   D(28,23,37,38)        -59.169          estimate D2E/DX2                !
 ! D99   D(28,23,37,39)         60.5857         estimate D2E/DX2                !
 ! D100  D(28,23,37,40)       -179.5448         estimate D2E/DX2                !
 --------------------------------------------------------------------------------
 Trust Radius=3.00D-01 FncErr=1.00D-07 GrdErr=1.00D-06 EigMax=2.50D+02 EigMin=1.00D-04
 Number of steps in this run=    223 maximum allowed number of steps=    240.
 GradGradGradGradGradGradGradGradGradGradGradGradGradGradGradGradGradGrad

                          Input orientation:                          
 ---------------------------------------------------------------------
 Center     Atomic      Atomic             Coordinates (Angstroms)
 Number     Number       Type             X           Y           Z
 ---------------------------------------------------------------------
      1          6           0       -4.816600   -1.933700    2.550500
      2          6           0       -4.335700   -0.896800    3.346100
      3          6           0       -3.876200    0.273800    2.749100
      4          6           0       -3.895100    0.414400    1.364300
      5          6           0       -4.378100   -0.624400    0.572400
      6          6           0       -4.844300   -1.811100    1.154500
      7          1           0       -3.502200    1.079300    3.365200
      8          1           0       -4.373300   -0.506900   -0.501700
      9          1           0       -4.322600   -0.999400    4.421800
     10          1           0       -5.183300   -2.830800    3.028300
     11          6           0       -6.330400   -5.011200   -1.293100
     12          6           0       -6.651200   -3.687500   -1.629100
     13          6           0       -6.156000   -2.658800   -0.815200
     14          6           0       -5.360600   -2.922800    0.304200
     15          6           0       -5.061100   -4.254800    0.606800
     16          6           0       -5.536200   -5.315500   -0.177500
     17          1           0       -6.396600   -1.628800   -1.034400
     18          1           0       -4.433400   -4.451100    1.463600
     19          1           0       -3.533600    1.323600    0.905600
     20          1           0       -6.704800   -5.817400   -1.909800
     21          6           0       -7.533100   -3.365800   -2.867100
     22          9           0       -7.847200   -4.531900   -3.453600
     23          6           0       -5.187900   -6.786600    0.181500
     24          9           0       -5.782300   -7.575900   -0.727300
     25          6           0       -6.763800   -2.512500   -3.919400
     26          9           0       -7.476000   -2.314500   -5.029900
     27          9           0       -6.443800   -1.299200   -3.464300
     28          6           0       -3.655800   -7.055300    0.096400
     29          9           0       -3.354800   -8.338500    0.303200
     30          9           0       -3.163200   -6.723400   -1.098800
     31          9           0       -5.619800   -3.095300   -4.284300
     32          9           0       -2.961200   -6.362400    1.001100
     33          6           0       -8.870200   -2.677000   -2.461500
     34          9           0       -9.679300   -2.488200   -3.505300
     35          9           0       -9.545400   -3.400900   -1.566200
     36          9           0       -8.683700   -1.473300   -1.916100
     37          6           0       -5.747300   -7.189100    1.578700
     38          9           0       -5.541700   -8.478000    1.854800
     39          9           0       -5.184700   -6.503200    2.576000
     40          9           0       -7.061700   -6.973500    1.663300
 ---------------------------------------------------------------------
                    Distance matrix (angstroms):
                    1          2          3          4          5
     1  C    0.000000
     2  C    1.392625   0.000000
     3  C    2.407665   1.392068   0.000000
     4  C    2.787437   2.416796   1.392048   0.000000
     5  C    2.412349   2.787366   2.407632   1.392659   0.000000
     6  C    1.401647   2.428524   2.797637   2.428548   1.401585
     7  H    3.386673   2.144775   1.080873   2.144776   3.386669
     8  H    3.398264   3.867687   3.379985   2.135281   1.080518
     9  H    2.149120   1.080661   2.149008   3.395570   3.868021
    10  H    1.080532   2.135364   3.380089   3.867774   3.398234
    11  C    5.151297   6.513777   7.091805   6.513800   5.151270
    12  C    4.889849   6.156473   6.523891   5.777726   4.404108
    13  C    3.694279   4.871812   5.147996   4.393910   3.037292
    14  C    2.513985   3.795820   4.289432   3.795841   2.513937
    15  C    3.037311   4.393875   5.147976   4.871837   3.694249
    16  C    4.404132   5.777704   6.523869   6.156469   4.889782
    17  H    3.929488   4.896112   4.928202   4.023174   2.768568
    18  H    2.768663   4.023233   4.928251   4.896194   3.929495
    19  H    3.868047   3.395524   2.148941   1.080617   2.149164
    20  H    6.208277   7.579540   8.173680   7.579543   6.208228
    21  C    6.227413   7.411018   7.626356   6.740156   5.412897
    22  F    7.210021   8.472338   8.794150   7.955950   6.596354
    23  C    5.413009   6.740229   7.626426   7.411123   6.227462
    24  F    6.596285   7.955854   8.794110   8.472379   7.210017
    25  C    6.781313   7.829026   7.782711   6.686828   5.425196
    26  F    8.042380   9.056972   8.953809   7.820200   6.621117
    27  F    6.263241   7.140557   6.904581   5.722558   4.584476
    28  C    5.796624   6.996423   7.797506   7.580320   6.488819
    29  F    6.943247   8.099401   8.968054   8.833522   7.786331
    30  F    6.244385   7.421668   8.017201   7.586220   6.439464
    31  F    6.979179   8.043962   7.991226   6.870172   5.588801
    32  F    5.045447   6.104184   6.923285   6.850482   5.925878
    33  C    6.488784   7.580173   7.797282   6.996079   5.796264
    34  F    7.786272   8.833363   8.967839   8.099078   6.942918
    35  F    6.439056   7.585656   8.016549   7.420932   6.243681
    36  F    5.925955   6.850416   6.923042   6.103698   5.044943
    37  C    5.424926   6.686506   7.782399   7.828782   6.781050
    38  F    6.620999   7.820039   8.953640   9.056857   8.042235
    39  F    4.584373   5.722375   6.904337   7.140341   6.263011
    40  F    5.588129   6.869438   7.990603   8.043496   6.978742
                    6          7          8          9         10
     6  C    0.000000
     7  H    3.878510   0.000000
     8  H    2.160041   4.269398   0.000000
     9  H    3.406799   2.471933   4.948331   0.000000
    10  H    2.160055   4.269483   4.303198   2.456964   0.000000
    11  C    4.294168   8.172678   4.974462   7.265389   4.974382
    12  C    3.812374   7.588255   4.071373   7.018664   4.957826
    13  C    2.513736   6.204175   2.811934   5.791471   3.968403
    14  C    1.491795   5.370305   2.731448   4.661710   2.731414
    15  C    2.513692   6.204157   3.968450   5.069244   2.811827
    16  C    3.812318   7.588237   4.957830   6.423014   4.071293
    17  H    2.689638   5.921810   2.374062   5.870923   4.407089
    18  H    2.689606   5.921870   4.407123   4.547247   2.374028
    19  H    3.406792   2.471902   2.456892   4.287483   4.948374
    20  H    5.376043   9.254553   5.968253   8.305249   5.968214
    21  C    5.081339   8.651510   4.873681   8.308744   6.368950
    22  F    6.136346   9.841780   6.081309   9.323266   7.211458
    23  C    5.081377   8.651584   6.369063   7.226380   4.873669
    24  F    6.136280   9.841743   7.211584   8.479051   6.081061
    25  C    5.470000   8.752397   4.627915   8.821822   7.132309
    26  F    6.739886   9.888714   5.779166  10.050276   8.393904
    27  F    4.914647   7.807198   3.700231   8.171900   6.788852
    28  C    5.480305   8.768145   6.614686   7.471789   5.364298
    29  F    6.749094   9.904167   7.938461   8.471239   6.411267
    30  F    5.659872   8.995796   6.361269   8.036505   6.022134
    31  F    5.641907   8.968075   4.749909   9.048298   7.330390
    32  F    4.927873   7.826912   6.208004   6.505103   4.638908
    33  C    5.480247   8.767876   5.363978   8.418719   6.614740
    34  F    6.749031   9.903908   6.410990   9.682442   7.938471
    35  F    5.659506   8.995063   6.021546   8.300662   6.361003
    36  F    4.927848   7.826611   4.638319   7.707967   6.208277
    37  C    5.469757   8.752057   7.132162   6.958834   4.627550
    38  F    6.739758   9.888521   8.393848   8.000322   5.778964
    39  F    4.914503   7.806917   6.788683   5.868731   3.700149
    40  F    5.641464   8.967390   7.330187   7.127542   4.749060
                   11         12         13         14         15
    11  C    0.000000
    12  C    1.402851   0.000000
    13  C    2.406780   1.402098   0.000000
    14  C    2.802373   2.447052   1.398361   0.000000
    15  C    2.406841   2.801695   2.401688   1.398389   0.000000
    16  C    1.402824   2.449643   2.801583   2.447015   1.402117
    17  H    3.392925   2.157947   1.080202   2.130629   3.372384
    18  H    3.392892   3.881561   3.372331   2.130636   1.080114
    19  H    7.265402   6.423026   5.069284   4.661708   5.791467
    20  H    1.081875   2.148986   3.387637   3.884248   3.387734
    21  C    2.575132   1.553667   2.570320   3.869515   4.355351
    22  F    2.682941   2.339279   3.651002   4.784709   4.932138
    23  C    2.575227   3.876073   4.355383   3.869603   2.570403
    24  F    2.682952   4.085081   4.932064   4.784680   3.650980
    25  C    3.650861   2.576583   3.166525   4.469465   5.140164
    26  F    4.748501   3.759104   4.429970   5.770405   6.431865
    27  F    4.301850   3.019098   2.991500   4.243936   5.217402
    28  C    3.641777   4.826163   5.139185   4.475163   3.174614
    29  F    4.740601   6.019289   6.430904   5.775209   4.436241
    30  F    3.605626   4.654466   5.055517   4.608854   3.550364
    31  F    3.622555   2.909394   3.537329   4.599051   5.057613
    32  F    4.294252   5.262047   5.217504   4.251310   3.001171
    33  C    3.642009   2.576424   3.174510   4.475132   5.139374
    34  F    4.740727   3.758701   4.436145   5.775148   6.431020
    35  F    3.606089   2.909036   3.550035   4.608636   5.055692
    36  F    4.294518   3.019289   3.001110   4.251326   5.217758
    37  C    3.651094   4.834069   5.140176   4.469363   3.166319
    38  F    4.748687   6.026395   6.431901   5.770390   4.429887
    39  F    4.302165   5.268933   5.217573   4.243970   2.991376
    40  F    3.622944   4.669711   5.057657   4.598811   3.536937
                   16         17         18         19         20
    16  C    0.000000
    17  H    3.881536   0.000000
    18  H    2.157907   4.249651   0.000000
    19  H    7.018630   4.547201   5.870959   0.000000
    20  H    2.149045   4.290184   4.290205   8.305231   0.000000
    21  C    3.875937   2.769041   5.435161   7.226323   2.759139
    22  F    4.085044   4.047809   5.986603   8.479189   2.311040
    23  C    1.553811   5.435280   2.769045   8.308813   2.759324
    24  F    2.339285   5.986625   4.047709   9.323310   2.311198
    25  C    4.833800   3.039570   6.177833   6.959201   3.868377
    26  F    6.026161   4.195153   7.482514   8.000528   4.753954
    27  F    5.268535   2.452606   6.185498   5.868933   4.785261
    28  C    2.576399   6.183656   3.042327   8.418771   3.854041
    29  F    3.758737   7.487442   4.197831   9.682512   4.740866
    30  F    2.908970   6.034399   3.652759   8.301146   3.744528
    31  F    4.669270   3.649094   6.023628   7.128392   3.771645
    32  F    3.019225   6.192915   2.456491   7.707876   4.773354
    33  C    4.826375   3.042044   6.183772   7.471376   3.854276
    34  F    6.019398   4.197622   7.487484   8.470861   4.740975
    35  F    4.654875   3.652135   6.034497   8.035698   3.745202
    36  F    5.262318   2.456095   6.193118   6.504473   4.773603
    37  C    2.576660   6.177930   3.039116   8.821541   3.868850
    38  F    3.759213   7.482638   4.194912  10.050115   4.754346
    39  F    3.019262   6.185747   2.452142   8.171607   4.785753
    40  F    2.909409   6.023766   3.648334   9.047843   3.772398
                   21         22         23         24         25
    21  C    0.000000
    22  F    1.342546   0.000000
    23  C    5.147407   5.036815   0.000000
    24  F    5.036764   4.578478   1.342469   0.000000
    25  C    1.557973   2.338526   6.129337   6.065547   0.000000
    26  F    2.405451   2.745792   7.238354   7.004521   1.334033
    27  F    2.411236   3.524201   6.706765   6.879369   1.334771
    28  C    6.117859   6.044657   1.557810   2.339126   6.813468
    29  F    7.227499   6.984655   2.404883   2.745222   7.962029
    30  F    5.787606   5.682219   2.396367   2.779290   6.217056
    31  F    2.396319   2.777624   5.809957   5.723149   1.334745
    32  F    6.696630   6.860618   2.410370   3.523997   7.313878
    33  C    1.557817   2.339112   6.118300   6.044981   2.566993
    34  F    2.404923   2.745173   7.227822   6.984883   2.944862
    35  F    2.396440   2.779447   5.788370   5.682895   3.750214
    36  F    2.410360   3.524014   6.697141   6.860983   2.962965
    37  C    6.129587   6.065833   1.557916   2.338477   7.289236
    38  F    7.238550   7.004723   2.405398   2.745708   8.391788
    39  F    6.707130   6.879753   2.411215   3.524146   7.785208
    40  F    5.810528   5.723730   2.396203   2.777538   7.152329
                   26         27         28         29         30
    26  F    0.000000
    27  F    2.132457   0.000000
    28  C    7.959150   7.320124   0.000000
    29  F    9.039625   8.560825   1.334155   0.000000
    30  F    7.313836   6.766082   1.334659   2.147292   0.000000
    31  F    2.147335   2.139475   6.223297   7.325744   5.417140
    32  F    8.552302   7.596334   1.334564   2.132359   2.140258
    33  C    2.944805   2.965022   7.273399   8.373517   7.127423
    34  F    2.684978   3.447298   8.373362   9.419659   8.135584
    35  F    4.178504   4.199982   7.127851   8.136220   7.210405
    36  F    3.444112   2.728440   7.777446   8.969584   7.662079
    37  C    8.391884   7.785107   2.567000   2.944839   3.750127
    38  F    9.440834   8.980077   2.944939   2.685043   4.178473
    39  F    8.980255   8.071690   2.964923   3.447097   4.199893
    40  F    8.165589   7.672794   3.749936   4.177823   4.784355
                   31         32         33         34         35
    31  F    0.000000
    32  F    6.758517   0.000000
    33  C    3.750023   7.777407   0.000000
    34  F    4.177912   8.969389   1.334094   0.000000
    35  F    4.784537   7.662454   1.334724   2.147338   0.000000
    36  F    4.198421   8.072197   1.334592   2.132322   2.140233
    37  C    7.151938   2.963007   6.814306   7.962797   6.218233
    38  F    8.165054   3.444350   7.959960   9.040360   7.315039
    39  F    7.672471   2.728385   7.321142   8.561768   6.767406
    40  F    7.245237   4.198339   6.224513   7.326948   5.418663
                   36         37         38         39         40
    36  F    0.000000
    37  C    7.314810   0.000000
    38  F    8.553226   1.334079   0.000000
    39  F    7.597490   1.334760   2.132467   0.000000
    40  F    6.759822   1.334649   2.147229   2.139470   0.000000
 Stoichiometry    C18H8F14
 Framework group  C1[X(C18H8F14)]
 Deg. of freedom   114
 Full point group                 C1      NOp   1
 Largest Abelian subgroup         C1      NOp   1
 Largest concise Abelian subgroup C1      NOp   1
                         Standard orientation:                         
 ---------------------------------------------------------------------
 Center     Atomic      Atomic             Coordinates (Angstroms)
 Number     Number       Type             X           Y           Z
 ---------------------------------------------------------------------
      1          6           0        0.932463    3.761842    0.764936
      2          6           0        0.933716    5.154466    0.766722
      3          6           0       -0.000008    5.845490   -0.000416
      4          6           0       -0.933781    5.154343   -0.767344
      5          6           0       -0.932479    3.761686   -0.765235
      6          6           0        0.000036    3.047852   -0.000186
      7          1           0       -0.000019    6.926362   -0.000468
      8          1           0       -1.653739    3.238634   -1.376562
      9          1           0        1.653960    5.695727    1.363476
     10          1           0        1.653761    3.238796    1.376247
     11          6           0       -0.000008   -1.246316    0.000273
     12          6           0       -1.224722   -0.562388    0.017802
     13          6           0       -1.200682    0.839504    0.018390
     14          6           0       -0.000004    1.556057   -0.000006
     15          6           0        1.200727    0.839536   -0.018272
     16          6           0        1.224667   -0.562376   -0.017452
     17          1           0       -2.124281    1.398888    0.048252
     18          1           0        2.124275    1.398828   -0.048233
     19          1           0       -1.653961    5.695495   -1.364192
     20          1           0       -0.000068   -2.328190    0.000351
     21          6           0       -2.573378   -1.333476    0.038655
     22          9           0       -2.289122   -2.645478    0.021949
     23          6           0        2.573455   -1.333524   -0.038215
     24          9           0        2.289157   -2.645428   -0.020712
     25          6           0       -3.432162   -1.031264   -1.225638
     26          9           0       -4.546700   -1.763143   -1.268091
     27          9           0       -3.824137    0.243052   -1.289585
     28          6           0        3.380301   -1.052197   -1.340761
     29          9           0        4.491683   -1.786442   -1.416158
     30          9           0        2.659902   -1.315735   -2.432955
     31          9           0       -2.756470   -1.277783   -2.350010
     32          9           0        3.770692    0.220197   -1.439092
     33          6           0       -3.380748   -1.051572    1.340760
     34          9           0       -4.492054   -1.785811    1.416235
     35          9           0       -2.660648   -1.314291    2.433428
     36          9           0       -3.771274    0.220875    1.438253
     37          6           0        3.432553   -1.030563    1.225616
     38          9           0        4.547064   -1.762559    1.268207
     39          9           0        3.824709    0.243731    1.288657
     40          9           0        2.757244   -1.276426    2.350247
 ---------------------------------------------------------------------
 Rotational constants (GHZ):           0.1544403           0.0994355           0.0754632
 Standard basis: def2TZVP (5D, 7F)
 There are  1200 symmetry adapted cartesian basis functions of A   symmetry.
 There are  1040 symmetry adapted basis functions of A   symmetry.
  1040 basis functions,  1696 primitive gaussians,  1200 cartesian basis functions
   121 alpha electrons      121 beta electrons
       nuclear repulsion energy      3725.1638305342 Hartrees.
 NAtoms=   40 NActive=   40 NUniq=   40 SFac= 1.00D+00 NAtFMM=   60 NAOKFM=F Big=F
 Integral buffers will be    131072 words long.
 Raffenetti 2 integral format.
 Two-electron integral symmetry is turned on.
 One-electron integrals computed using PRISM.
   1 Symmetry operations used in ECPInt.
 ECPInt:  NShTT=   73920 NPrTT=  237744 LenC2=   57346 LenP2D=  122694.
 LDataN:  DoStor=T MaxTD1= 6 Len=  172
 Number of processors reduced to  24 by ecpmxn.
 NBasis=  1040 RedAO= T EigKep=  4.76D-06  NBF=  1040
 NBsUse=  1040 1.00D-06 EigRej= -1.00D+00 NBFU=  1040
 ExpMin= 9.52D-02 ExpMax= 3.55D+04 ExpMxC= 1.21D+03 IAcc=3 IRadAn=         5 AccDes= 0.00D+00
 Harris functional with IExCor= 1009 and IRadAn=       5 diagonalized for initial guess.
 HarFok:  IExCor= 1009 AccDes= 0.00D+00 IRadAn=         5 IDoV= 1 UseB2=F ITyADJ=14
 ICtDFT=  3500011 ScaDFX=  1.000000  1.000000  1.000000  1.000000
 FoFCou: FMM=F IPFlag=           0 FMFlag=      100000 FMFlg1=           0
         NFxFlg=           0 DoJE=T BraDBF=F KetDBF=T FulRan=T
         wScrn=  0.000000 ICntrl=       500 IOpCl=  0 I1Cent=   200000004 NGrid=           0
         NMat0=    1 NMatS0=      1 NMatT0=    0 NMatD0=    1 NMtDS0=    0 NMtDT0=    0
 Petite list used in FoFCou.
 Requested convergence on RMS density matrix=1.00D-08 within 128 cycles.
 Requested convergence on MAX density matrix=1.00D-06.
 Requested convergence on             energy=1.00D-06.
 No special actions if energy rises.
 Integral accuracy reduced to 1.0D-05 until final iterations.
 Problem detected with inexpensive integrals.
 Switching to full accuracy and repeating last cycle.
 SCF Done:  E(RM062X) =  -2088.71795600     A.U. after   15 cycles
            NFock= 15  Conv=0.23D-08     -V/T= 2.0042

 **********************************************************************

            Population analysis using the SCF Density.

 **********************************************************************

 Orbital symmetries:
       Occupied  (A) (A) (A) (A) (A) (A) (A) (A) (A) (A) (A) (A)
                 (A) (A) (A) (A) (A) (A) (A) (A) (A) (A) (A) (A)
                 (A) (A) (A) (A) (A) (A) (A) (A) (A) (A) (A) (A)
                 (A) (A) (A) (A) (A) (A) (A) (A) (A) (A) (A) (A)
                 (A) (A) (A) (A) (A) (A) (A) (A) (A) (A) (A) (A)
                 (A) (A) (A) (A) (A) (A) (A) (A) (A) (A) (A) (A)
                 (A) (A) (A) (A) (A) (A) (A) (A) (A) (A) (A) (A)
                 (A) (A) (A) (A) (A) (A) (A) (A) (A) (A) (A) (A)
                 (A) (A) (A) (A) (A) (A) (A) (A) (A) (A) (A) (A)
                 (A) (A) (A) (A) (A) (A) (A) (A) (A) (A) (A) (A)
                 (A)
       Virtual   (A) (A) (A) (A) (A) (A) (A) (A) (A) (A) (A) (A)
                 (A) (A) (A) (A) (A) (A) (A) (A) (A) (A) (A) (A)
                 (A) (A) (A) (A) (A) (A) (A) (A) (A) (A) (A) (A)
                 (A) (A) (A) (A) (A) (A) (A) (A) (A) (A) (A) (A)
                 (A) (A) (A) (A) (A) (A) (A) (A) (A) (A) (A) (A)
                 (A) (A) (A) (A) (A) (A) (A) (A) (A) (A) (A) (A)
                 (A) (A) (A) (A) (A) (A) (A) (A) (A) (A) (A) (A)
                 (A) (A) (A) (A) (A) (A) (A) (A) (A) (A) (A) (A)
                 (A) (A) (A) (A) (A) (A) (A) (A) (A) (A) (A) (A)
                 (A) (A) (A) (A) (A) (A) (A) (A) (A) (A) (A) (A)
                 (A) (A) (A) (A) (A) (A) (A) (A) (A) (A) (A) (A)
                 (A) (A) (A) (A) (A) (A) (A) (A) (A) (A) (A) (A)
                 (A) (A) (A) (A) (A) (A) (A) (A) (A) (A) (A) (A)
                 (A) (A) (A) (A) (A) (A) (A) (A) (A) (A) (A) (A)
                 (A) (A) (A) (A) (A) (A) (A) (A) (A) (A) (A) (A)
                 (A) (A) (A) (A) (A) (A) (A) (A) (A) (A) (A) (A)
                 (A) (A) (A) (A) (A) (A) (A) (A) (A) (A) (A) (A)
                 (A) (A) (A) (A) (A) (A) (A) (A) (A) (A) (A) (A)
                 (A) (A) (A) (A) (A) (A) (A) (A) (A) (A) (A) (A)
                 (A) (A) (A) (A) (A) (A) (A) (A) (A) (A) (A) (A)
                 (A) (A) (A) (A) (A) (A) (A) (A) (A) (A) (A) (A)
                 (A) (A) (A) (A) (A) (A) (A) (A) (A) (A) (A) (A)
                 (A) (A) (A) (A) (A) (A) (A) (A) (A) (A) (A) (A)
                 (A) (A) (A) (A) (A) (A) (A) (A) (A) (A) (A) (A)
                 (A) (A) (A) (A) (A) (A) (A) (A) (A) (A) (A) (A)
                 (A) (A) (A) (A) (A) (A) (A) (A) (A) (A) (A) (A)
                 (A) (A) (A) (A) (A) (A) (A) (A) (A) (A) (A) (A)
                 (A) (A) (A) (A) (A) (A) (A) (A) (A) (A) (A) (A)
                 (A) (A) (A) (A) (A) (A) (A) (A) (A) (A) (A) (A)
                 (A) (A) (A) (A) (A) (A) (A) (A) (A) (A) (A) (A)
                 (A) (A) (A) (A) (A) (A) (A) (A) (A) (A) (A) (A)
                 (A) (A) (A) (A) (A) (A) (A) (A) (A) (A) (A) (A)
                 (A) (A) (A) (A) (A) (A) (A) (A) (A) (A) (A) (A)
                 (A) (A) (A) (A) (A) (A) (A) (A) (A) (A) (A) (A)
                 (A) (A) (A) (A) (A) (A) (A) (A) (A) (A) (A) (A)
                 (A) (A) (A) (A) (A) (A) (A) (A) (A) (A) (A) (A)
                 (A) (A) (A) (A) (A) (A) (A) (A) (A) (A) (A) (A)
                 (A) (A) (A) (A) (A) (A) (A) (A) (A) (A) (A) (A)
                 (A) (A) (A) (A) (A) (A) (A) (A) (A) (A) (A) (A)
                 (A) (A) (A) (A) (A) (A) (A) (A) (A) (A) (A) (A)
                 (A) (A) (A) (A) (A) (A) (A) (A) (A) (A) (A) (A)
                 (A) (A) (A) (A) (A) (A) (A) (A) (A) (A) (A) (A)
                 (A) (A) (A) (A) (A) (A) (A) (A) (A) (A) (A) (A)
                 (A) (A) (A) (A) (A) (A) (A) (A) (A) (A) (A) (A)
                 (A) (A) (A) (A) (A) (A) (A) (A) (A) (A) (A) (A)
                 (A) (A) (A) (A) (A) (A) (A) (A) (A) (A) (A) (A)
                 (A) (A) (A) (A) (A) (A) (A) (A) (A) (A) (A) (A)
                 (A) (A) (A) (A) (A) (A) (A) (A) (A) (A) (A) (A)
                 (A) (A) (A) (A) (A) (A) (A) (A) (A) (A) (A) (A)
                 (A) (A) (A) (A) (A) (A) (A) (A) (A) (A) (A) (A)
                 (A) (A) (A) (A) (A) (A) (A) (A) (A) (A) (A) (A)
                 (A) (A) (A) (A) (A) (A) (A) (A) (A) (A) (A) (A)
                 (A) (A) (A) (A) (A) (A) (A) (A) (A) (A) (A) (A)
                 (A) (A) (A) (A) (A) (A) (A) (A) (A) (A) (A) (A)
                 (A) (A) (A) (A) (A) (A) (A) (A) (A) (A) (A) (A)
                 (A) (A) (A) (A) (A) (A) (A) (A) (A) (A) (A) (A)
                 (A) (A) (A) (A) (A) (A) (A) (A) (A) (A) (A) (A)
                 (A) (A) (A) (A) (A) (A) (A) (A) (A) (A) (A) (A)
                 (A) (A) (A) (A) (A) (A) (A) (A) (A) (A) (A) (A)
                 (A) (A) (A) (A) (A) (A) (A) (A) (A) (A) (A) (A)
                 (A) (A) (A) (A) (A) (A) (A) (A) (A) (A) (A) (A)
                 (A) (A) (A) (A) (A) (A) (A) (A) (A) (A) (A) (A)
                 (A) (A) (A) (A) (A) (A) (A) (A) (A) (A) (A) (A)
                 (A) (A) (A) (A) (A) (A) (A) (A) (A) (A) (A) (A)
                 (A) (A) (A) (A) (A) (A) (A) (A) (A) (A) (A) (A)
                 (A) (A) (A) (A) (A) (A) (A) (A) (A) (A) (A) (A)
                 (A) (A) (A) (A) (A) (A) (A) (A) (A) (A) (A) (A)
                 (A) (A) (A) (A) (A) (A) (A) (A) (A) (A) (A) (A)
                 (A) (A) (A) (A) (A) (A) (A) (A) (A) (A) (A) (A)
                 (A) (A) (A) (A) (A) (A) (A) (A) (A) (A) (A) (A)
                 (A) (A) (A) (A) (A) (A) (A) (A) (A) (A) (A) (A)
                 (A) (A) (A) (A) (A) (A) (A) (A) (A) (A) (A) (A)
                 (A) (A) (A) (A) (A) (A) (A) (A) (A) (A) (A) (A)
                 (A) (A) (A) (A) (A) (A) (A) (A) (A) (A) (A) (A)
                 (A) (A) (A) (A) (A) (A) (A) (A) (A) (A) (A) (A)
                 (A) (A) (A) (A) (A) (A) (A) (A) (A) (A) (A) (A)
                 (A) (A) (A) (A) (A) (A) (A)
 The electronic state is 1-A.
 Alpha  occ. eigenvalues --  -25.31027 -25.31026 -25.30885 -25.30884 -25.30653
 Alpha  occ. eigenvalues --  -25.30651 -25.30574 -25.30572 -25.30459 -25.30456
 Alpha  occ. eigenvalues --  -25.30401 -25.30400 -25.30387 -25.30384 -10.83289
 Alpha  occ. eigenvalues --  -10.83288 -10.83210 -10.83210 -10.71761 -10.71760
 Alpha  occ. eigenvalues --  -10.60851 -10.60851 -10.59169 -10.59136 -10.58513
 Alpha  occ. eigenvalues --  -10.58507 -10.57681 -10.56247 -10.56243 -10.55960
 Alpha  occ. eigenvalues --  -10.55938 -10.55799  -1.50345  -1.50345  -1.49672
 Alpha  occ. eigenvalues --   -1.49671  -1.42981  -1.42972  -1.40431  -1.40430
 Alpha  occ. eigenvalues --   -1.40287  -1.40286  -1.40178  -1.40175  -1.39881
 Alpha  occ. eigenvalues --   -1.39878  -1.01977  -0.98306  -0.97257  -0.94765
 Alpha  occ. eigenvalues --   -0.90474  -0.88028  -0.86178  -0.85242  -0.85239
 Alpha  occ. eigenvalues --   -0.84576  -0.80475  -0.80079  -0.75858  -0.74676
 Alpha  occ. eigenvalues --   -0.74385  -0.74353  -0.73649  -0.73240  -0.72819
 Alpha  occ. eigenvalues --   -0.71982  -0.71806  -0.71805  -0.70733  -0.70722
 Alpha  occ. eigenvalues --   -0.70714  -0.69626  -0.68552  -0.68199  -0.65956
 Alpha  occ. eigenvalues --   -0.62375  -0.61617  -0.60920  -0.60739  -0.60564
 Alpha  occ. eigenvalues --   -0.60534  -0.60497  -0.59832  -0.59435  -0.59429
 Alpha  occ. eigenvalues --   -0.59266  -0.59263  -0.59184  -0.58321  -0.57551
 Alpha  occ. eigenvalues --   -0.56667  -0.56534  -0.56192  -0.56131  -0.55313
 Alpha  occ. eigenvalues --   -0.55169  -0.55130  -0.55049  -0.54881  -0.54864
 Alpha  occ. eigenvalues --   -0.54142  -0.54086  -0.53548  -0.53536  -0.52928
 Alpha  occ. eigenvalues --   -0.51583  -0.50826  -0.49499  -0.49082  -0.48705
 Alpha  occ. eigenvalues --   -0.47609  -0.46695  -0.45722  -0.45277  -0.44235
 Alpha  occ. eigenvalues --   -0.41984  -0.41972  -0.36421  -0.35067  -0.32693
 Alpha  occ. eigenvalues --   -0.30758
 Alpha virt. eigenvalues --   -0.03629  -0.03301   0.00179   0.02120   0.05462
 Alpha virt. eigenvalues --    0.06811   0.07013   0.08505   0.08526   0.10219
 Alpha virt. eigenvalues --    0.11251   0.11262   0.11780   0.12047   0.12341
 Alpha virt. eigenvalues --    0.13255   0.14051   0.14063   0.14667   0.14909
 Alpha virt. eigenvalues --    0.15999   0.17075   0.17612   0.17749   0.18547
 Alpha virt. eigenvalues --    0.18930   0.19748   0.19758   0.20400   0.20408
 Alpha virt. eigenvalues --    0.21226   0.22235   0.22264   0.22714   0.23179
 Alpha virt. eigenvalues --    0.23484   0.23971   0.24104   0.24305   0.24544
 Alpha virt. eigenvalues --    0.25015   0.25096   0.25555   0.25955   0.26165
 Alpha virt. eigenvalues --    0.26415   0.26767   0.27800   0.28124   0.28744
 Alpha virt. eigenvalues --    0.28781   0.28876   0.29139   0.29604   0.29733
 Alpha virt. eigenvalues --    0.29801   0.30005   0.30309   0.30621   0.31332
 Alpha virt. eigenvalues --    0.31842   0.32001   0.32088   0.32793   0.33019
 Alpha virt. eigenvalues --    0.33837   0.34538   0.34807   0.35253   0.35342
 Alpha virt. eigenvalues --    0.35491   0.36145   0.36912   0.37156   0.37276
 Alpha virt. eigenvalues --    0.37657   0.38126   0.38692   0.39267   0.39698
 Alpha virt. eigenvalues --    0.40752   0.41221   0.42315   0.42880   0.42940
 Alpha virt. eigenvalues --    0.43392   0.43673   0.44080   0.44675   0.44686
 Alpha virt. eigenvalues --    0.45919   0.46016   0.46192   0.46644   0.47763
 Alpha virt. eigenvalues --    0.48171   0.49380   0.49750   0.50355   0.51688
 Alpha virt. eigenvalues --    0.51770   0.51995   0.52951   0.53074   0.53112
 Alpha virt. eigenvalues --    0.53786   0.54253   0.54825   0.56867   0.57147
 Alpha virt. eigenvalues --    0.57327   0.57694   0.58698   0.58757   0.59821
 Alpha virt. eigenvalues --    0.60373   0.60929   0.61367   0.61788   0.62003
 Alpha virt. eigenvalues --    0.62683   0.63176   0.64062   0.64090   0.64795
 Alpha virt. eigenvalues --    0.66029   0.66177   0.66423   0.66784   0.68762
 Alpha virt. eigenvalues --    0.69819   0.70258   0.70690   0.70882   0.71331
 Alpha virt. eigenvalues --    0.72058   0.72501   0.72796   0.72913   0.73262
 Alpha virt. eigenvalues --    0.73470   0.74565   0.74656   0.75367   0.76032
 Alpha virt. eigenvalues --    0.76246   0.77011   0.77445   0.77657   0.77719
 Alpha virt. eigenvalues --    0.78984   0.79151   0.79161   0.79414   0.79942
 Alpha virt. eigenvalues --    0.80301   0.80654   0.81240   0.81486   0.81562
 Alpha virt. eigenvalues --    0.81901   0.81994   0.82739   0.83346   0.84385
 Alpha virt. eigenvalues --    0.85062   0.85195   0.86076   0.86465   0.86475
 Alpha virt. eigenvalues --    0.87800   0.87897   0.88428   0.89858   0.89939
 Alpha virt. eigenvalues --    0.90113   0.90978   0.91125   0.91657   0.91682
 Alpha virt. eigenvalues --    0.92105   0.92582   0.92957   0.93822   0.94103
 Alpha virt. eigenvalues --    0.94463   0.94617   0.94626   0.95310   0.96912
 Alpha virt. eigenvalues --    0.97137   0.97396   0.98221   0.98718   0.99415
 Alpha virt. eigenvalues --    1.00033   1.00237   1.01509   1.02621   1.03058
 Alpha virt. eigenvalues --    1.04272   1.04399   1.05092   1.05701   1.06982
 Alpha virt. eigenvalues --    1.07650   1.08012   1.09837   1.10693   1.10913
 Alpha virt. eigenvalues --    1.11585   1.12596   1.13344   1.13441   1.14429
 Alpha virt. eigenvalues --    1.14692   1.15130   1.15282   1.16414   1.16822
 Alpha virt. eigenvalues --    1.18170   1.18520   1.19940   1.20304   1.21323
 Alpha virt. eigenvalues --    1.21866   1.22068   1.22748   1.22922   1.24067
 Alpha virt. eigenvalues --    1.24231   1.25165   1.26058   1.27080   1.27677
 Alpha virt. eigenvalues --    1.27774   1.29424   1.29910   1.30458   1.32278
 Alpha virt. eigenvalues --    1.32565   1.33072   1.33613   1.34795   1.34835
 Alpha virt. eigenvalues --    1.36277   1.36445   1.38179   1.38311   1.38784
 Alpha virt. eigenvalues --    1.39684   1.40271   1.40426   1.41226   1.41351
 Alpha virt. eigenvalues --    1.41626   1.44102   1.44935   1.46314   1.46587
 Alpha virt. eigenvalues --    1.46920   1.47686   1.49181   1.49927   1.51638
 Alpha virt. eigenvalues --    1.52396   1.52621   1.53132   1.53620   1.54845
 Alpha virt. eigenvalues --    1.56561   1.58547   1.58624   1.58944   1.59333
 Alpha virt. eigenvalues --    1.60232   1.60446   1.63332   1.63420   1.64228
 Alpha virt. eigenvalues --    1.64929   1.67105   1.67502   1.69478   1.71466
 Alpha virt. eigenvalues --    1.71609   1.72016   1.72759   1.73227   1.73403
 Alpha virt. eigenvalues --    1.75145   1.75429   1.76201   1.76402   1.77246
 Alpha virt. eigenvalues --    1.77596   1.78619   1.79221   1.80564   1.80619
 Alpha virt. eigenvalues --    1.82607   1.83540   1.84621   1.84814   1.85911
 Alpha virt. eigenvalues --    1.86232   1.87367   1.88549   1.88764   1.90561
 Alpha virt. eigenvalues --    1.91608   1.92100   1.92510   1.93722   1.93929
 Alpha virt. eigenvalues --    1.94186   1.94713   1.94936   1.96575   1.96770
 Alpha virt. eigenvalues --    1.97101   1.97292   1.97511   1.97682   1.97964
 Alpha virt. eigenvalues --    1.98551   1.99622   1.99975   2.02617   2.02973
 Alpha virt. eigenvalues --    2.04047   2.05319   2.05667   2.06100   2.07516
 Alpha virt. eigenvalues --    2.07919   2.08534   2.08686   2.09717   2.12062
 Alpha virt. eigenvalues --    2.12611   2.12620   2.12921   2.13693   2.14989
 Alpha virt. eigenvalues --    2.17044   2.17050   2.17220   2.17294   2.18368
 Alpha virt. eigenvalues --    2.18694   2.18812   2.20813   2.21333   2.21585
 Alpha virt. eigenvalues --    2.22904   2.22986   2.24953   2.25396   2.26164
 Alpha virt. eigenvalues --    2.26642   2.27141   2.27429   2.27548   2.29851
 Alpha virt. eigenvalues --    2.31256   2.32465   2.32786   2.33234   2.33486
 Alpha virt. eigenvalues --    2.33489   2.34850   2.35046   2.36424   2.36984
 Alpha virt. eigenvalues --    2.37177   2.38229   2.38382   2.40548   2.40594
 Alpha virt. eigenvalues --    2.41012   2.42423   2.43192   2.44135   2.45579
 Alpha virt. eigenvalues --    2.45891   2.46207   2.47040   2.47859   2.48687
 Alpha virt. eigenvalues --    2.49288   2.49686   2.49774   2.50320   2.52902
 Alpha virt. eigenvalues --    2.53056   2.53176   2.54227   2.54359   2.54877
 Alpha virt. eigenvalues --    2.55241   2.56026   2.56271   2.56576   2.56665
 Alpha virt. eigenvalues --    2.58886   2.59150   2.60007   2.61076   2.62109
 Alpha virt. eigenvalues --    2.62142   2.62418   2.63067   2.64127   2.64166
 Alpha virt. eigenvalues --    2.65150   2.65337   2.65590   2.65740   2.66339
 Alpha virt. eigenvalues --    2.66920   2.67198   2.67789   2.68541   2.69386
 Alpha virt. eigenvalues --    2.70226   2.70357   2.71076   2.72791   2.73237
 Alpha virt. eigenvalues --    2.74488   2.75036   2.75318   2.76121   2.76913
 Alpha virt. eigenvalues --    2.76956   2.78846   2.79441   2.79912   2.80425
 Alpha virt. eigenvalues --    2.81226   2.82534   2.82859   2.83202   2.83344
 Alpha virt. eigenvalues --    2.83959   2.84797   2.85783   2.86259   2.87295
 Alpha virt. eigenvalues --    2.87480   2.88325   2.89248   2.89320   2.90736
 Alpha virt. eigenvalues --    2.91151   2.92941   2.93517   2.93956   2.94872
 Alpha virt. eigenvalues --    2.95803   2.95808   2.96307   2.97360   2.98074
 Alpha virt. eigenvalues --    2.98139   2.98657   2.99535   3.00455   3.01104
 Alpha virt. eigenvalues --    3.01543   3.02048   3.03121   3.03375   3.03598
 Alpha virt. eigenvalues --    3.04770   3.05486   3.05905   3.06588   3.07092
 Alpha virt. eigenvalues --    3.07529   3.08149   3.08997   3.09745   3.10508
 Alpha virt. eigenvalues --    3.10872   3.11451   3.11964   3.12562   3.13071
 Alpha virt. eigenvalues --    3.13241   3.14180   3.14388   3.15888   3.15999
 Alpha virt. eigenvalues --    3.16805   3.17114   3.17739   3.18308   3.18481
 Alpha virt. eigenvalues --    3.18497   3.19190   3.20180   3.21083   3.21184
 Alpha virt. eigenvalues --    3.21767   3.22454   3.22824   3.22935   3.23306
 Alpha virt. eigenvalues --    3.24325   3.25167   3.25372   3.25619   3.26461
 Alpha virt. eigenvalues --    3.26616   3.26930   3.27145   3.27226   3.28024
 Alpha virt. eigenvalues --    3.28789   3.29194   3.29534   3.31430   3.31710
 Alpha virt. eigenvalues --    3.31833   3.32290   3.32579   3.32632   3.33847
 Alpha virt. eigenvalues --    3.34209   3.35125   3.35900   3.36102   3.36747
 Alpha virt. eigenvalues --    3.37226   3.37785   3.37979   3.38788   3.39739
 Alpha virt. eigenvalues --    3.40345   3.40888   3.41105   3.42167   3.42430
 Alpha virt. eigenvalues --    3.43096   3.43202   3.44412   3.44974   3.46265
 Alpha virt. eigenvalues --    3.47027   3.47755   3.48339   3.49247   3.49345
 Alpha virt. eigenvalues --    3.50229   3.51776   3.52057   3.52414   3.53667
 Alpha virt. eigenvalues --    3.54537   3.56288   3.56497   3.56524   3.57082
 Alpha virt. eigenvalues --    3.59021   3.60179   3.60599   3.60875   3.61803
 Alpha virt. eigenvalues --    3.62039   3.62799   3.63186   3.66915   3.67604
 Alpha virt. eigenvalues --    3.68167   3.68483   3.71119   3.71704   3.72637
 Alpha virt. eigenvalues --    3.73027   3.74053   3.74568   3.74992   3.75180
 Alpha virt. eigenvalues --    3.77249   3.77599   3.78082   3.78307   3.78840
 Alpha virt. eigenvalues --    3.79579   3.80528   3.81771   3.82549   3.83421
 Alpha virt. eigenvalues --    3.84878   3.86695   3.89886   3.90593   3.91807
 Alpha virt. eigenvalues --    3.92640   3.93528   3.94011   3.94640   3.94999
 Alpha virt. eigenvalues --    3.95063   3.95922   3.96485   3.96794   3.97139
 Alpha virt. eigenvalues --    3.97954   3.99592   3.99730   4.00295   4.00404
 Alpha virt. eigenvalues --    4.00796   4.01823   4.02755   4.03328   4.03732
 Alpha virt. eigenvalues --    4.04288   4.04313   4.05000   4.05675   4.06182
 Alpha virt. eigenvalues --    4.06353   4.07585   4.07672   4.07873   4.08958
 Alpha virt. eigenvalues --    4.09194   4.09371   4.11249   4.11872   4.12130
 Alpha virt. eigenvalues --    4.12829   4.12871   4.15202   4.15423   4.15726
 Alpha virt. eigenvalues --    4.16359   4.16629   4.17588   4.17885   4.18504
 Alpha virt. eigenvalues --    4.19564   4.19839   4.20332   4.20639   4.21402
 Alpha virt. eigenvalues --    4.21832   4.22505   4.23806   4.24240   4.26189
 Alpha virt. eigenvalues --    4.26774   4.27456   4.28475   4.29475   4.29543
 Alpha virt. eigenvalues --    4.30701   4.31295   4.31925   4.35554   4.37999
 Alpha virt. eigenvalues --    4.39281   4.40589   4.43166   4.44941   4.47940
 Alpha virt. eigenvalues --    4.50464   4.54696   4.58381   4.59407   4.60184
 Alpha virt. eigenvalues --    4.60956   4.61332   4.61931   4.64113   4.67516
 Alpha virt. eigenvalues --    4.70803   4.71503   4.74383   4.75531   4.79438
 Alpha virt. eigenvalues --    4.83572   4.85438   4.86935   4.88205   4.91776
 Alpha virt. eigenvalues --    4.99178   5.04447   5.04829   5.06518   5.08942
 Alpha virt. eigenvalues --    5.09710   5.13721   5.16374   5.17279   5.21096
 Alpha virt. eigenvalues --    5.22449   5.27031   5.27619   5.27695   5.29484
 Alpha virt. eigenvalues --    5.31770   5.33564   5.34640   5.40915   5.41841
 Alpha virt. eigenvalues --    5.42402   5.44573   5.49340   5.52538   5.56131
 Alpha virt. eigenvalues --    5.56552   5.62722   5.65093   5.73298   6.80574
 Alpha virt. eigenvalues --    6.80590   6.80763   6.80832   6.84925   6.84991
 Alpha virt. eigenvalues --    6.85047   6.85058   6.85222   6.85227   6.85414
 Alpha virt. eigenvalues --    6.85444   6.85619   6.85633   6.85666   6.85678
 Alpha virt. eigenvalues --    6.85727   6.85740   6.85875   6.85900   6.86041
 Alpha virt. eigenvalues --    6.86065   6.86243   6.86267   6.86404   6.86405
 Alpha virt. eigenvalues --    6.86636   6.86641   6.86987   6.87033   6.87047
 Alpha virt. eigenvalues --    6.87171   6.87485   6.87613   6.87620   6.87734
 Alpha virt. eigenvalues --    6.87782   6.87785   6.90244   6.90449   6.96401
 Alpha virt. eigenvalues --    6.96453   6.97035   6.97044   6.98643   6.98684
 Alpha virt. eigenvalues --    6.99468   6.99570   7.00101   7.00216   7.00438
 Alpha virt. eigenvalues --    7.00791   7.02251   7.02345   7.03923   7.04385
 Alpha virt. eigenvalues --    7.06160   7.06215   7.06945   7.07060   7.07115
 Alpha virt. eigenvalues --    7.07161   7.08493   7.09354   7.12809   7.12895
 Alpha virt. eigenvalues --    7.12946   7.13039   7.24678   7.24722   7.25741
 Alpha virt. eigenvalues --    7.26812   7.28718   7.30977   7.33380   7.33484
 Alpha virt. eigenvalues --    7.37045   7.37114   7.37292   7.37404   7.37557
 Alpha virt. eigenvalues --    7.37901   7.38554   7.38565   7.41079   7.41168
 Alpha virt. eigenvalues --    7.48639   7.48704   7.49139   7.49231   7.57137
 Alpha virt. eigenvalues --    7.57176   7.60230   7.60251   7.61099   7.61267
 Alpha virt. eigenvalues --    7.62665   7.62995   8.27249   8.27362   8.29089
 Alpha virt. eigenvalues --    8.29112   8.30396   8.30826   8.31006   8.31260
 Alpha virt. eigenvalues --    8.31360   8.32061   8.34148   8.34847   8.36254
 Alpha virt. eigenvalues --    8.36547   8.44396   8.45632   8.47114   8.47297
 Alpha virt. eigenvalues --    8.48968   8.49154   8.49160   8.49382   8.49574
 Alpha virt. eigenvalues --    8.51630   8.54079   8.54557   8.60247   8.60711
 Alpha virt. eigenvalues --    8.67502   8.67665   8.68474   8.68800   8.73108
 Alpha virt. eigenvalues --    8.73111   8.73806   8.73879   8.75090   8.75263
 Alpha virt. eigenvalues --    8.77577   8.77665   8.86094   8.86406   8.87494
 Alpha virt. eigenvalues --    8.87647   8.89885   8.89941   8.90768   8.90994
 Alpha virt. eigenvalues --    8.92148   8.92455   8.93070   8.93437   8.96785
 Alpha virt. eigenvalues --    8.96942   8.97018   8.97259   8.98415   8.99286
 Alpha virt. eigenvalues --    8.99578   8.99602   9.00625   9.00745   9.09219
 Alpha virt. eigenvalues --    9.09462   9.09587   9.10170   9.10578   9.10941
 Alpha virt. eigenvalues --    9.15574   9.16143  22.17694  22.40535  22.66979
 Alpha virt. eigenvalues --   22.69736  22.76875  22.77392  22.83162  22.86316
 Alpha virt. eigenvalues --   22.87949  22.88389  22.88609  22.89437  22.98955
 Alpha virt. eigenvalues --   22.99544  23.06796  23.10327  23.29456  23.47277
 Alpha virt. eigenvalues --   57.38145  57.39984  57.40187  57.40434  57.46713
 Alpha virt. eigenvalues --   57.47151  57.47618  57.49069  57.53018  57.54166
 Alpha virt. eigenvalues --   57.55290  57.55628  57.74336  57.74416
          Condensed to atoms (all electrons):
               1          2          3          4          5          6
     1  C    5.041676   0.486717  -0.027158  -0.060157  -0.014077   0.477940
     2  C    0.486717   4.916892   0.505008  -0.023939  -0.060161  -0.037682
     3  C   -0.027158   0.505008   4.887976   0.505033  -0.027155  -0.055177
     4  C   -0.060157  -0.023939   0.505033   4.916897   0.486657  -0.037662
     5  C   -0.014077  -0.060161  -0.027155   0.486657   5.041714   0.478018
     6  C    0.477940  -0.037682  -0.055177  -0.037662   0.478018   5.048884
     7  H    0.004343  -0.033985   0.410431  -0.033986   0.004345   0.000866
     8  H    0.006059  -0.001083   0.004067  -0.022433   0.399918  -0.043062
     9  H   -0.030305   0.408491  -0.030722   0.003451   0.000026   0.005246
    10  H    0.399944  -0.022432   0.004068  -0.001084   0.006057  -0.043091
    11  C   -0.000109  -0.000044   0.000014  -0.000044  -0.000109  -0.002309
    12  C   -0.001157   0.000196  -0.000076  -0.000004   0.005715   0.014962
    13  C    0.013430  -0.001001   0.000236   0.000118   0.002227  -0.085010
    14  C   -0.100425   0.012467  -0.007462   0.012466  -0.100434   0.274895
    15  C    0.002243   0.000111   0.000239  -0.001004   0.013442  -0.085008
    16  C    0.005725  -0.000006  -0.000075   0.000195  -0.001156   0.014938
    17  H    0.000373  -0.000211   0.000010   0.000266   0.001692  -0.002569
    18  H    0.001691   0.000266   0.000010  -0.000211   0.000372  -0.002568
    19  H    0.000026   0.003451  -0.030724   0.408501  -0.030301   0.005245
    20  H   -0.000005  -0.000000   0.000000  -0.000000  -0.000005   0.000175
    21  C   -0.000102   0.000004  -0.000002   0.000007   0.000692  -0.002247
    22  F   -0.000000  -0.000000   0.000000  -0.000000   0.000000   0.000000
    23  C    0.000691   0.000007  -0.000002   0.000004  -0.000102  -0.002245
    24  F    0.000000  -0.000000   0.000000  -0.000000  -0.000000   0.000000
    25  C    0.000000  -0.000001   0.000000   0.000006  -0.000056  -0.000257
    26  F   -0.000000   0.000000   0.000000   0.000000  -0.000000  -0.000002
    27  F   -0.000004  -0.000000   0.000000   0.000003  -0.000530  -0.000186
    28  C   -0.000014  -0.000004   0.000000   0.000001   0.000005  -0.000115
    29  F   -0.000000   0.000000  -0.000000  -0.000000   0.000000  -0.000001
    30  F   -0.000003   0.000000  -0.000000   0.000000   0.000002  -0.000080
    31  F    0.000001  -0.000000   0.000000  -0.000001  -0.000031  -0.000017
    32  F    0.000039  -0.000003   0.000000   0.000000  -0.000006  -0.000315
    33  C    0.000005   0.000001   0.000000  -0.000004  -0.000014  -0.000114
    34  F    0.000000  -0.000000  -0.000000   0.000000  -0.000000  -0.000001
    35  F    0.000002   0.000000  -0.000000   0.000000  -0.000003  -0.000080
    36  F   -0.000006   0.000000   0.000000  -0.000003   0.000039  -0.000315
    37  C   -0.000056   0.000006   0.000000  -0.000001   0.000000  -0.000257
    38  F   -0.000000   0.000000   0.000000   0.000000  -0.000000  -0.000002
    39  F   -0.000530   0.000003   0.000000  -0.000000  -0.000004  -0.000186
    40  F   -0.000031  -0.000001   0.000000  -0.000000   0.000001  -0.000017
               7          8          9         10         11         12
     1  C    0.004343   0.006059  -0.030305   0.399944  -0.000109  -0.001157
     2  C   -0.033985  -0.001083   0.408491  -0.022432  -0.000044   0.000196
     3  C    0.410431   0.004067  -0.030722   0.004068   0.000014  -0.000076
     4  C   -0.033986  -0.022433   0.003451  -0.001084  -0.000044  -0.000004
     5  C    0.004345   0.399918   0.000026   0.006057  -0.000109   0.005715
     6  C    0.000866  -0.043062   0.005246  -0.043091  -0.002309   0.014962
     7  H    0.507920  -0.000258  -0.003758  -0.000258  -0.000000  -0.000000
     8  H   -0.000258   0.484400   0.000055  -0.000187  -0.000111   0.001160
     9  H   -0.003758   0.000055   0.499901  -0.003674  -0.000001   0.000002
    10  H   -0.000258  -0.000187  -0.003674   0.484406  -0.000110  -0.000059
    11  C   -0.000000  -0.000111  -0.000001  -0.000110   5.269599   0.219859
    12  C   -0.000000   0.001160   0.000002  -0.000059   0.219859   5.645222
    13  C   -0.000010   0.002792   0.000021   0.000719   0.079563   0.205566
    14  C    0.000096  -0.000299   0.000066  -0.000298  -0.166307   0.055933
    15  C   -0.000010   0.000718   0.000043   0.002796   0.079534  -0.148320
    16  C   -0.000000  -0.000058   0.000008   0.001162   0.219867   0.127189
    17  H    0.000000  -0.002382   0.000001   0.000066   0.008326  -0.026190
    18  H    0.000000   0.000066   0.000026  -0.002382   0.008327  -0.002998
    19  H   -0.003757  -0.003672  -0.000258   0.000055  -0.000001   0.000008
    20  H    0.000000   0.000001  -0.000000   0.000001   0.390121  -0.023248
    21  C    0.000000   0.000025   0.000000   0.000001  -0.013628   0.160125
    22  F    0.000000  -0.000000  -0.000000  -0.000000   0.010655  -0.073996
    23  C    0.000000   0.000001   0.000001   0.000025  -0.013626  -0.001442
    24  F    0.000000  -0.000000  -0.000000  -0.000000   0.010663   0.001149
    25  C   -0.000000   0.000112   0.000000  -0.000001   0.001806  -0.041647
    26  F   -0.000000   0.000003   0.000000   0.000000  -0.000505   0.005174
    27  F   -0.000000   0.001488   0.000000   0.000000   0.000169  -0.024448
    28  C   -0.000000  -0.000001  -0.000000   0.000004   0.001883  -0.000996
    29  F   -0.000000  -0.000000  -0.000000  -0.000000  -0.000505  -0.000016
    30  F   -0.000000  -0.000000   0.000000  -0.000001   0.003013  -0.001772
    31  F    0.000000   0.000057  -0.000000   0.000000   0.003301  -0.007642
    32  F    0.000000  -0.000000  -0.000000   0.000008   0.000812  -0.000282
    33  C   -0.000000   0.000004  -0.000000  -0.000001   0.001897  -0.041398
    34  F   -0.000000  -0.000000  -0.000000  -0.000000  -0.000505   0.005316
    35  F   -0.000000  -0.000001  -0.000000  -0.000000   0.003012  -0.009572
    36  F    0.000000   0.000008   0.000000  -0.000000   0.000809  -0.023496
    37  C   -0.000000  -0.000001  -0.000001   0.000112   0.001817  -0.001349
    38  F   -0.000000   0.000000  -0.000000   0.000003  -0.000505  -0.000012
    39  F   -0.000000   0.000000  -0.000002   0.001488   0.000165  -0.000218
    40  F    0.000000   0.000000  -0.000000   0.000057   0.003298  -0.001743
              13         14         15         16         17         18
     1  C    0.013430  -0.100425   0.002243   0.005725   0.000373   0.001691
     2  C   -0.001001   0.012467   0.000111  -0.000006  -0.000211   0.000266
     3  C    0.000236  -0.007462   0.000239  -0.000075   0.000010   0.000010
     4  C    0.000118   0.012466  -0.001004   0.000195   0.000266  -0.000211
     5  C    0.002227  -0.100434   0.013442  -0.001156   0.001692   0.000372
     6  C   -0.085010   0.274895  -0.085008   0.014938  -0.002569  -0.002568
     7  H   -0.000010   0.000096  -0.000010  -0.000000   0.000000   0.000000
     8  H    0.002792  -0.000299   0.000718  -0.000058  -0.002382   0.000066
     9  H    0.000021   0.000066   0.000043   0.000008   0.000001   0.000026
    10  H    0.000719  -0.000298   0.002796   0.001162   0.000066  -0.002382
    11  C    0.079563  -0.166307   0.079534   0.219867   0.008326   0.008327
    12  C    0.205566   0.055933  -0.148320   0.127189  -0.026190  -0.002998
    13  C    5.539672   0.301329  -0.023387  -0.148326   0.356415   0.011104
    14  C    0.301329   5.220966   0.301407   0.055919  -0.009158  -0.009159
    15  C   -0.023387   0.301407   5.539503   0.205620   0.011101   0.356444
    16  C   -0.148326   0.055919   0.205620   5.645159  -0.002996  -0.026195
    17  H    0.356415  -0.009158   0.011101  -0.002996   0.426671  -0.000036
    18  H    0.011104  -0.009159   0.356444  -0.026195  -0.000036   0.426646
    19  H    0.000043   0.000066   0.000021   0.000002   0.000026   0.000001
    20  H    0.013189  -0.003784   0.013188  -0.023243  -0.000065  -0.000065
    21  C   -0.060671   0.023294   0.007370  -0.001439   0.018526   0.000004
    22  F    0.005952  -0.000886   0.000457   0.001148  -0.000017   0.000001
    23  C    0.007374   0.023272  -0.060623   0.160238   0.000004   0.018520
    24  F    0.000457  -0.000886   0.005951  -0.074023   0.000001  -0.000017
    25  C   -0.004516  -0.002059   0.000202  -0.001350  -0.005994   0.000009
    26  F    0.000277  -0.000017   0.000003  -0.000012   0.000030   0.000000
    27  F    0.007311   0.002098   0.000252  -0.000218   0.003542   0.000000
    28  C    0.000125  -0.002498  -0.008449  -0.041419   0.000009  -0.004882
    29  F    0.000003  -0.000049   0.000409   0.005315   0.000000   0.000095
    30  F    0.000339  -0.002267   0.006089  -0.009571   0.000001   0.000574
    31  F    0.005001  -0.002371   0.000341  -0.001744   0.000598   0.000001
    32  F    0.000336   0.000722   0.005549  -0.023484   0.000001   0.005827
    33  C   -0.008444  -0.002503   0.000125  -0.000998  -0.004885   0.000009
    34  F    0.000409  -0.000049   0.000003  -0.000016   0.000095   0.000000
    35  F    0.006097  -0.002270   0.000339  -0.001772   0.000575   0.000001
    36  F    0.005547   0.000725   0.000335  -0.000282   0.005828   0.000001
    37  C    0.000201  -0.002062  -0.004513  -0.041600   0.000009  -0.005999
    38  F    0.000003  -0.000017   0.000276   0.005173   0.000000   0.000030
    39  F    0.000252   0.002101   0.007300  -0.024442   0.000000   0.003544
    40  F    0.000341  -0.002373   0.005003  -0.007648   0.000001   0.000599
              19         20         21         22         23         24
     1  C    0.000026  -0.000005  -0.000102  -0.000000   0.000691   0.000000
     2  C    0.003451  -0.000000   0.000004  -0.000000   0.000007  -0.000000
     3  C   -0.030724   0.000000  -0.000002   0.000000  -0.000002   0.000000
     4  C    0.408501  -0.000000   0.000007  -0.000000   0.000004  -0.000000
     5  C   -0.030301  -0.000005   0.000692   0.000000  -0.000102  -0.000000
     6  C    0.005245   0.000175  -0.002247   0.000000  -0.002245   0.000000
     7  H   -0.003757   0.000000   0.000000   0.000000   0.000000   0.000000
     8  H   -0.003672   0.000001   0.000025  -0.000000   0.000001  -0.000000
     9  H   -0.000258  -0.000000   0.000000  -0.000000   0.000001  -0.000000
    10  H    0.000055   0.000001   0.000001  -0.000000   0.000025  -0.000000
    11  C   -0.000001   0.390121  -0.013628   0.010655  -0.013626   0.010663
    12  C    0.000008  -0.023248   0.160125  -0.073996  -0.001442   0.001149
    13  C    0.000043   0.013189  -0.060671   0.005952   0.007374   0.000457
    14  C    0.000066  -0.003784   0.023294  -0.000886   0.023272  -0.000886
    15  C    0.000021   0.013188   0.007370   0.000457  -0.060623   0.005951
    16  C    0.000002  -0.023243  -0.001439   0.001148   0.160238  -0.074023
    17  H    0.000026  -0.000065   0.018526  -0.000017   0.000004   0.000001
    18  H    0.000001  -0.000065   0.000004   0.000001   0.018520  -0.000017
    19  H    0.499886  -0.000000   0.000001  -0.000000   0.000000  -0.000000
    20  H   -0.000000   0.450785  -0.014071   0.009078  -0.014064   0.009077
    21  C    0.000001  -0.014071   4.967515   0.250968  -0.002153  -0.000050
    22  F   -0.000000   0.009078   0.250968   9.000717  -0.000050  -0.000004
    23  C    0.000000  -0.014064  -0.002153  -0.000050   4.967271   0.250995
    24  F   -0.000000   0.009077  -0.000050  -0.000004   0.250995   9.000684
    25  C   -0.000001   0.000212   0.412849  -0.018547  -0.000033   0.000002
    26  F   -0.000000  -0.000005  -0.033606  -0.000815   0.000000   0.000000
    27  F   -0.000002  -0.000027  -0.014182   0.000812  -0.000001   0.000000
    28  C   -0.000000  -0.000017  -0.000022   0.000002   0.421591  -0.019007
    29  F   -0.000000   0.000000   0.000000   0.000000  -0.033042  -0.000834
    30  F   -0.000000   0.000163  -0.000041   0.000000  -0.032216  -0.000460
    31  F   -0.000000   0.000140  -0.033289  -0.000495  -0.000039   0.000000
    32  F    0.000000  -0.000024  -0.000001   0.000000  -0.013590   0.000818
    33  C   -0.000000  -0.000015   0.421547  -0.019002  -0.000021   0.000002
    34  F   -0.000000   0.000000  -0.033040  -0.000835   0.000000   0.000000
[...]
 040332,-0.00021886,-0.01108510,-0.02726449,-0.01314805,0.00712761,-0.0
 0740302,-0.00437937,-0.00009627,-0.00011040,-0.00010164,0.00015428,0.0
 0007170,0.00017939,-0.00244046,-0.01014413,0.00017712,0.00085956,0.001
 32276,-0.00039514,0.00005393,0.00572318,0.00165964,-0.00031256,0.00002
 385,-0.00015663,0.00008696,-0.00005163,0.00002496,0.00007467,-0.000007
 77,0.00003375,0.00123592,0.00143087,-0.00090176,0.00013804,0.00003599,
 0.00010388,0.00120847,-0.27389292,-0.07816719,-0.02424857,-0.00865651,
 -0.03355376,-0.03038015,-0.06519651,0.01688704,0.05520135,0.38321714,-
 0.00001391,0.00000290,0.00007257,-0.00002029,-0.00001711,0.00000245,0.
 00000563,0.00002349,-0.00001079,-0.00002247,0.00006302,0.00002323,-0.0
 0005719,0.00002895,-0.00003103,-0.00001234,-0.00005786,0.00003907,0.00
 000826,-0.00000696,-0.00000710,0.00007903,-0.00001444,-0.00004168,0.00
 000627,-0.00000282,-0.00000511,0.00002644,-0.00001000,-0.00000649,0.00
 032998,-0.00014980,0.00063909,0.00090704,-0.00026434,-0.00148824,-0.00
 166510,-0.00123570,-0.00000877,-0.00005693,0.00052994,0.00064653,0.000
 15650,0.00013366,-0.00000165,-0.00019615,0.00011921,-0.00005836,-0.000
 27861,0.00133432,-0.00038083,0.00003476,0.00007891,-0.00004387,0.00001
 818,-0.00000821,-0.00000169,-0.00006836,0.00020045,-0.00021068,-0.0058
 3584,-0.01528501,0.00108956,0.00340591,-0.00437300,-0.00095106,-0.0000
 1465,-0.00019585,-0.00007448,0.00005114,0.00010739,0.00012329,-0.00356
 950,-0.00016813,-0.00014218,0.00083518,0.00016691,0.00030019,0.0043785
 3,0.00087171,-0.00170463,0.00009416,-0.00007577,-0.00013885,-0.0000409
 3,0.00006267,0.00002206,-0.00004950,0.00001115,0.00007578,0.00060433,-
 0.00017862,0.00006224,0.00000296,0.00003424,0.00005242,0.00194424,-0.0
 7838010,-0.10486134,-0.02919702,-0.04586014,-0.03419880,0.00595251,0.0
 3083226,0.01572796,0.02225526,0.11164654,0.12548708,-0.00026570,0.0000
 0823,0.00009664,-0.00008928,0.00008546,-0.00008025,-0.00000335,0.00001
 080,0.00000190,0.00001040,0.00002148,-0.00001489,0.00000564,0.00003956
 ,0.00007076,-0.00006999,0.00013937,-0.00015710,0.00003349,0.00001571,0
 .00000612,0.00002625,-0.00001407,-0.00001692,0.00005288,-0.00004242,0.
 00000424,0.00034106,-0.00025135,-0.00007040,-0.00124613,0.00311824,0.0
 0014923,-0.00145816,0.00090824,-0.00051425,-0.00037496,0.00041772,-0.0
 0069841,-0.00049091,-0.00043427,0.00028016,0.00080979,0.00206788,0.001
 51093,0.00520868,-0.00454032,-0.00900730,0.00007593,0.00004046,-0.0001
 4538,-0.00023538,-0.00158186,-0.00026126,0.00002102,0.00002114,-0.0000
 0134,0.00094707,-0.00026573,-0.00087669,0.00045624,0.00069881,0.000469
 07,-0.00043204,-0.00037363,-0.00017185,-0.08823766,-0.00384254,0.05429
 007,-0.00157362,-0.00453624,-0.02767047,0.00054329,-0.00003796,0.00021
 028,-0.00020478,0.00006450,-0.00028567,-0.00017127,-0.00008129,-0.0000
 7430,-0.01440590,-0.01089607,0.03988288,0.00139912,0.00083235,-0.00327
 702,-0.00466825,0.00121595,-0.00095931,-0.00033300,0.00009448,0.000057
 03,0.00149499,0.00033664,-0.00484365,0.00171075,0.00104379,-0.00147206
 ,-0.00041796,-0.00008464,0.00020898,-0.00086886,-0.00064497,0.00093965
 ,-0.00039130,-0.00039144,0.00004996,0.58415409,-0.00024429,-0.00029733
 ,0.00034938,0.00005893,0.00020771,-0.00028876,0.00004995,0.00011518,0.
 00009216,0.00003457,0.00006277,0.00001056,0.00008027,0.00005746,0.0002
 0001,-0.00010879,-0.00000369,-0.00017346,0.00003313,0.00007623,0.00001
 358,-0.00002815,-0.00001381,-0.00002533,0.00000217,-0.00003930,0.00003
 443,0.00005727,-0.00022866,-0.00028249,0.00029773,-0.00244186,0.000311
 62,0.00091577,0.00028503,-0.00052619,-0.00042161,0.00010289,-0.0000315
 5,0.00055847,-0.00137258,-0.00083904,0.00171827,0.00090769,0.00021804,
 -0.00815942,-0.01399508,0.02753948,-0.00014774,0.00002904,-0.00003844,
 -0.00213344,-0.00164297,0.00014526,0.00001997,0.00007432,-0.00000417,-
 0.00054109,0.00019055,0.00024234,0.00061843,0.00028710,0.00084381,-0.0
 0032522,-0.00032180,-0.00052914,-0.00866654,-0.07007657,0.04496700,0.0
 0013446,-0.00893469,-0.03561564,-0.00014274,-0.00028262,0.00123918,-0.
 00016201,0.00018499,-0.00074128,-0.00001092,0.00002991,-0.00031455,-0.
 00408405,0.02189606,-0.00579386,0.00056498,-0.01058657,0.00311669,0.00
 422681,-0.00183549,-0.00200900,0.00012541,0.00001585,-0.00034390,0.000
 60822,-0.00364975,-0.00252083,0.00101580,-0.00035136,0.00065036,-0.000
 63643,0.00014021,-0.00047924,-0.00021736,0.00011340,-0.00022152,-0.000
 23131,0.00005777,-0.00014658,0.00210794,0.58755073,-0.00042168,-0.0009
 5723,0.00028503,-0.00002846,0.00017154,-0.00016120,-0.00009200,-0.0001
 8541,-0.00010896,0.00002921,0.00010431,-0.00017074,-0.00017757,-0.0001
 3462,-0.00035117,0.00051126,0.00035359,0.00057234,0.00001282,0.0000095
 5,-0.00003559,0.00008792,0.00017835,-0.00011141,-0.00004323,-0.0001449
 1,-0.00012233,0.00015369,-0.00033608,0.00005173,0.00082954,-0.00425562
 ,0.00038585,0.00047476,0.00053583,-0.00016129,-0.00024404,-0.00111171,
 0.00004261,-0.00004667,-0.00004159,-0.00082076,0.00284324,-0.00141556,
 0.00172316,-0.00115322,0.01872462,-0.00296742,-0.00015275,-0.00000418,
 -0.00007075,-0.00188030,-0.00156749,0.00086914,-0.00000519,-0.00004472
 ,-0.00003201,-0.00061659,0.00033347,-0.00056977,-0.00026489,-0.0002340
 0,-0.00041878,0.00024468,-0.00022990,0.00025632,0.03438361,0.02774757,
 -0.14367133,-0.00015218,-0.00720386,-0.03701311,-0.00006513,0.00084059
 ,-0.00092837,0.00016878,-0.00025676,0.00062783,-0.00003250,-0.00035600
 ,0.00020461,0.02941781,-0.00254514,0.01364578,-0.00427573,0.00417124,-
 0.00207356,-0.01053900,-0.00044982,0.00429932,0.00011499,-0.00023296,0
 .00017311,-0.00498648,-0.00273751,-0.00796577,-0.00128365,0.00065535,0
 .00014250,0.00060870,-0.00019544,0.00023734,0.00036642,-0.00010243,-0.
 00010521,0.00030180,-0.00033299,-0.00005062,-0.01236036,-0.00985047,0.
 59891222,0.00001672,-0.00003642,0.00000376,0.00001619,-0.00000492,0.00
 000081,0.00000094,-0.00000350,-0.00000171,0.00000027,0.00000421,-0.000
 00268,-0.00000274,-0.00001097,-0.00001549,0.00002650,-0.00000689,0.000
 03229,-0.00000474,0.00000016,-0.00000196,-0.00000314,0.00000797,-0.000
 00145,-0.00001067,0.00000154,-0.00000374,-0.00004244,0.00002087,0.0000
 0639,0.00010003,-0.00080371,-0.00003616,0.00029753,-0.00006011,0.00010
 063,0.00000485,-0.00008368,0.00005561,0.00012496,-0.00002695,-0.000072
 16,0.00003743,-0.00012388,-0.00020322,-0.00063207,0.00088448,0.0025389
 3,-0.00002858,-0.00000551,0.00002027,-0.00012846,0.00007078,0.00009066
 ,-0.00000270,-0.00000279,-0.00000052,-0.00015253,0.00002148,0.00012878
 ,-0.00007121,-0.00013135,-0.00007399,0.00007126,0.00005554,0.00002444,
 0.00849571,-0.01205849,0.00144419,0.00100243,0.00115978,0.00119939,-0.
 00010132,0.00002197,-0.00002764,0.00003620,-0.00001330,0.00004762,0.00
 002958,0.00000614,0.00000898,0.00021285,0.00442415,-0.00342823,-0.0051
 8980,-0.00258097,0.00517657,0.00055927,-0.00062706,0.00042898,0.000065
 07,-0.00002202,-0.00001419,-0.00008068,-0.00048593,-0.00003786,-0.0002
 9501,-0.00016447,0.00026094,0.00007237,0.00001215,-0.00003795,0.000149
 20,0.00010661,-0.00016225,0.00006605,0.00005939,-0.00001225,-0.0798135
 9,0.02251061,-0.00236981,0.09510258,0.00005674,0.00001899,-0.00014005,
 -0.00003195,-0.00008409,0.00012331,-0.00004311,-0.00008497,-0.00007017
 ,-0.00000372,-0.00000977,-0.00002735,-0.00009082,-0.00006618,-0.000138
 63,0.00010723,0.00009256,0.00020788,-0.00001531,-0.00004064,-0.0000146
 0,0.00003839,0.00004630,-0.00000812,-0.00000182,-0.00000103,-0.0000366
 2,-0.00001571,0.00010520,0.00014380,-0.00058288,-0.00142022,-0.0003533
 7,0.00055482,-0.00008097,-0.00004304,0.00002604,-0.00040138,0.00008425
 ,0.00044296,0.00041099,0.00026277,0.00004156,-0.00020496,0.00016857,-0
 .00304768,0.00200277,0.00515467,-0.00002371,0.00000459,0.00001809,0.00
 032353,0.00030000,0.00001171,-0.00001035,-0.00004815,-0.00000152,-0.00
 012370,-0.00008259,0.00004751,-0.00031908,-0.00036405,-0.00059222,0.00
 021862,0.00017861,0.00035810,0.00327287,-0.03673770,0.00382552,0.00116
 327,0.00561428,0.00125115,0.00013620,0.00025150,-0.00093169,0.00010587
 ,-0.00013936,0.00053369,-0.00000146,-0.00005880,0.00023509,0.00492406,
 -0.00981564,0.00128366,-0.00096356,0.00614573,-0.00130536,-0.00154926,
 0.00138667,0.00010554,-0.00009885,-0.00002186,0.00024680,-0.00084700,0
 .00147744,0.00062087,-0.00078216,0.00031915,-0.00037790,0.00048283,-0.
 00011666,0.00033245,0.00016302,-0.00009115,0.00012960,0.00018810,-0.00
 009212,0.00009248,0.02092229,-0.29526112,0.06743723,-0.05954461,0.4284
 7046,0.00007197,0.00019319,-0.00001711,0.00001292,-0.00001255,-0.00000
 159,0.00003135,0.00005984,0.00004309,-0.00001104,-0.00001950,0.0000425
 2,0.00006766,0.00004904,0.00010877,-0.00013522,-0.00010767,-0.00018166
 ,0.00000224,0.00000965,0.00001143,-0.00002919,-0.00005228,0.00002576,0
 .00000945,0.00003075,0.00003563,-0.00002339,0.00003913,-0.00005216,0.0
 0017055,0.00176139,0.00013844,-0.00054671,0.00002510,0.00012963,0.0000
 7512,0.00033980,-0.00007154,-0.00031602,-0.00002826,0.00011881,-0.0008
 3030,0.00000174,-0.00035637,0.00293122,-0.00173562,-0.00555151,0.00006
 677,-0.00000080,-0.00000522,0.00041301,0.00020574,-0.00015339,0.000005
 41,0.00002237,0.00000658,0.00030437,-0.00002866,-0.00001383,0.00014017
 ,0.00019291,0.00027482,-0.00012432,-0.00001659,-0.00015403,-0.00321464
 ,0.03583470,-0.00343652,0.00046237,0.00151689,0.00202574,-0.00001996,-
 0.00023907,0.00045777,-0.00006636,0.00009153,-0.00028135,0.00000436,0.
 00008766,-0.00011078,-0.00435668,0.00067752,-0.00157881,0.00480134,-0.
 00037420,-0.00197618,0.00105551,-0.00017430,-0.00018296,-0.00000006,0.
 00005449,-0.00010296,0.00116015,0.00035984,0.00113378,0.00053793,-0.00
 018653,0.00001275,-0.00027365,0.00006971,-0.00013079,-0.00014981,0.000
 02249,0.00002075,-0.00012894,0.00008244,-0.00001261,-0.00209623,0.0592
 6500,-0.09900230,0.01099720,-0.05804663,0.08820051,0.00011531,0.000069
 38,-0.00006154,0.00002988,-0.00003297,0.00004384,0.00000411,0.00000201
 ,0.00000756,-0.00000698,-0.00001970,0.00001271,0.00001313,-0.00000181,
 -0.00000240,-0.00002721,-0.00001950,0.00002195,-0.00001159,-0.00000691
 ,0.00000081,-0.00001343,-0.00000775,0.00001157,-0.00001249,0.00002271,
 0.00000737,-0.00014015,0.00010259,0.00002705,0.00014188,0.00011324,-0.
 00001490,0.00011302,-0.00016993,0.00009736,0.00011640,-0.00015975,0.00
 006100,0.00027955,0.00017798,0.00042330,-0.00091972,-0.00116925,-0.000
 67703,-0.00003499,-0.00044348,-0.00007293,0.00002637,-0.00000892,0.000
 05851,0.00044407,-0.00019976,0.00081012,-0.00000628,-0.00000431,0.0000
 0245,-0.00008247,-0.00001668,0.00017729,-0.00010811,-0.00010223,-0.000
 11220,0.00008880,0.00010716,0.00004840,0.00804082,0.00085625,0.0003155
 2,0.00111066,0.00050960,0.00302433,-0.00012769,-0.00004623,-0.00003989
 ,0.00004402,-0.00000224,0.00004973,0.00004318,0.00004555,0.00001904,-0
 .00228547,-0.00180194,-0.00665857,0.00032226,0.00082873,0.00034478,0.0
 0101371,-0.00000697,0.00066848,0.00006333,-0.00000512,-0.00000886,-0.0
 0468232,0.00085119,0.00692966,-0.00030681,-0.00024541,0.00024220,0.000
 07222,0.00002507,-0.00003275,0.00016102,0.00013050,-0.00017018,0.00007
 310,0.00010329,0.00000403,-0.09607022,-0.03309653,-0.05322093,0.012328
 63,-0.01123664,-0.00239042,0.13377552,0.00012356,0.00017357,-0.0000971
 0,-0.00000440,-0.00009456,0.00010919,-0.00000621,-0.00002002,-0.000021
 20,-0.00001120,-0.00003549,0.00001615,-0.00000692,-0.00000502,-0.00004
 672,-0.00007875,0.00001451,0.00003037,-0.00001631,-0.00002682,-0.00000
 155,-0.00000341,-0.00001502,0.00002343,-0.00000277,0.00002899,-0.00000
 091,-0.00002006,0.00031879,0.00008109,-0.00045374,0.00073579,-0.000254
 63,0.00008613,-0.00048050,0.00024653,0.00041866,0.00006070,0.00016185,
 -0.00003637,0.00092005,0.00084544,-0.00259239,-0.00300738,0.00064155,0
 .00107050,-0.00052721,-0.00101325,0.00010074,-0.00001730,0.00006733,0.
 00098611,-0.00146062,0.00229202,-0.00000911,-0.00002309,0.00000392,0.0
 0011063,-0.00013687,0.00018381,-0.00020679,-0.00018363,-0.00033955,0.0
 0012252,0.00020647,0.00017077,-0.00322144,0.00171433,-0.00349314,0.000
 27896,0.00169728,-0.00015441,0.00002917,-0.00001133,-0.00033577,0.0000
 4861,-0.00003625,0.00020225,0.00001926,0.00004429,0.00008721,-0.002283
 27,-0.00403693,-0.00160816,0.00035328,0.00174608,-0.00019314,0.0005422
 1,0.00051802,-0.00010390,-0.00003589,0.00002160,0.00009690,0.00034764,
 0.00173170,0.00200273,-0.00037423,-0.00007747,-0.00003619,0.00019341,-
 0.00001627,0.00010696,0.00012860,0.00004975,-0.00002550,0.00008689,0.0
 0006413,0.00004740,-0.03134534,-0.12222774,-0.08619875,-0.01644057,-0.
 07035164,-0.04611887,0.07034865,0.18305868,0.00027275,0.00050630,-0.00
 020909,0.00002289,-0.00011382,0.00013091,0.00004230,0.00007394,0.00005
 298,-0.00002531,-0.00005957,0.00007713,0.00008092,0.00005330,0.0001549
 8,-0.00021831,-0.00024270,-0.00023698,-0.00001653,-0.00001804,0.000013
 69,-0.00003901,-0.00007868,0.00005563,0.00001556,0.00008717,0.00005734
 ,-0.00011726,0.00031686,-0.00002125,-0.00010800,0.00091442,-0.00012631
 ,0.00008759,-0.00022948,0.00017627,0.00012019,0.00040958,0.00015629,-0
 .00014697,0.00011521,0.00009796,-0.00057270,0.00221324,-0.00177297,0.0
 0152313,-0.00228923,0.00107909,0.00004407,0.00001016,0.00001792,0.0008
 7403,0.00233006,-0.00180058,-0.00000265,0.00001014,0.00001805,0.000281
 24,-0.00034169,0.00034700,-0.00000829,-0.00011153,0.00003194,-0.000018
 26,0.00021536,-0.00001361,-0.02011827,-0.02721127,-0.02396830,0.002231
 78,-0.00052847,-0.01511820,0.00000082,-0.00037180,0.00020568,-0.000033
 98,0.00008987,-0.00014808,0.00004297,0.00018333,-0.00003337,-0.0070364
 9,-0.00124836,-0.00366542,0.00136942,-0.00006640,0.00034985,0.00192500
 ,0.00029968,-0.00028122,-0.00004032,0.00010498,-0.00003454,0.00582611,
 0.00145173,0.00133648,0.00025802,-0.00037848,-0.00001925,-0.00014312,0
 .00008246,-0.00005989,-0.00005086,0.00010172,-0.00001479,-0.00006376,0
 .00019793,0.00005020,-0.05010873,-0.08024758,-0.24224522,-0.00173150,-
 0.02857046,0.00802979,0.10346734,0.14016758,0.28197483,0.00012674,-0.0
 0003511,-0.00003230,0.00005023,-0.00003017,0.00002573,0.00000478,-0.00
 000376,0.00000349,0.00000085,-0.00000916,-0.00000031,0.00000826,-0.000
 02077,-0.00003123,0.00004145,-0.00008341,0.00007534,-0.00001768,-0.000
 00356,-0.00000226,-0.00001842,0.00001148,0.00000431,-0.00003185,0.0000
 1869,-0.00000156,-0.00018163,0.00010359,0.00002541,0.00027458,-0.00077
 834,-0.00017549,0.00042448,-0.00063459,0.00024878,0.00027496,-0.000169
 63,0.00041709,-0.00012235,0.00029095,-0.00006009,-0.00014000,-0.001177
 14,-0.00043557,-0.00022258,0.00362132,-0.00009049,-0.00001925,-0.00001
 676,0.00005393,0.00011829,0.00065365,0.00003080,-0.00001479,-0.0000051
 1,0.00000099,-0.00038311,0.00005512,0.00037655,-0.00024579,-0.00030778
 ,-0.00021778,0.00024248,0.00018998,0.00006683,-0.04963066,0.00308152,-
 0.00007989,0.00518331,0.00155556,0.00160945,-0.00041460,0.00002642,-0.
 00001449,0.00012804,-0.00002726,0.00011553,0.00010857,0.00004038,0.000
 01938,0.00749618,-0.00295207,0.00363579,-0.00075388,0.00067583,0.00010
 219,-0.00485593,-0.00060883,0.00369150,0.00024720,-0.00007427,-0.00007
 001,-0.00081987,-0.00028959,-0.00012121,-0.00094080,-0.00064801,0.0008
 9609,0.00019672,0.00006280,-0.00015769,0.00050452,0.00038952,-0.000567
 93,0.00021736,0.00023789,-0.00003924,-0.30546840,0.02361849,0.02386312
 ,-0.03225694,0.04616500,-0.00860816,-0.05358506,-0.01824636,-0.0378858
 2,0.43447461,-0.00000010,0.00001438,-0.00004529,-0.00001441,-0.0000238
 3,0.00003966,-0.00001250,-0.00003215,-0.00002407,-0.00000392,-0.000002
 26,-0.00001035,-0.00002474,-0.00001958,-0.00004124,0.00003451,0.000053
 34,0.00005894,-0.00000461,-0.00001233,-0.00000447,0.00001188,0.0000146
 3,-0.00000447,0.00000031,-0.00000188,-0.00001188,0.00002815,0.00001189
 ,0.00005149,-0.00067743,0.00020098,-0.00031698,-0.00009983,0.00009875,
 -0.00006489,0.00000190,-0.00011498,-0.00010528,0.00018140,0.00014142,0
 .00012673,-0.00020935,0.00055982,0.00064092,-0.00169153,-0.00045667,-0
 .00005878,-0.00000461,0.00000672,-0.00000006,0.00009611,0.00001273,-0.
 00002166,-0.00000169,-0.00001504,-0.00000086,0.00010929,-0.00007424,-0
 .00005062,-0.00012204,-0.00006928,-0.00018804,0.00006573,0.00006438,0.
 00012406,-0.00780344,0.00577493,0.00048236,0.00131582,0.00159345,0.001
 60155,0.00003974,0.00007074,-0.00029753,0.00003372,-0.00004234,0.00016
 831,0.00000132,-0.00001287,0.00007768,0.00092104,-0.00264180,0.0018604
 9,-0.00025986,0.00161492,-0.00053849,-0.00072636,0.00040105,0.00020875
 ,-0.00003725,-0.00000356,0.00008404,-0.00002351,0.00041325,-0.00000483
 ,-0.00019127,0.00012798,-0.00022733,0.00014335,-0.00003830,0.00012811,
 0.00002165,-0.00005403,0.00009388,0.00004559,-0.00003078,0.00004286,0.
 02515310,-0.07882190,-0.00013809,0.06387027,-0.03125021,0.00614862,-0.
 02548986,0.00968643,-0.00782744,-0.05467654,0.09285626,0.00006675,0.00
 020356,-0.00004802,-0.00000051,-0.00002639,0.00002542,0.00001901,0.000
 04313,0.00002604,-0.00001214,-0.00002105,0.00003912,0.00003885,0.00003
 045,0.00007589,-0.00010289,-0.00008665,-0.00011621,0.00000189,-0.00000
 135,0.00000763,-0.00001391,-0.00004122,0.00002341,0.00001433,0.0000270
 9,0.00002646,-0.00000097,0.00003946,-0.00001889,0.00029008,0.00055452,
 -0.00001496,0.00007087,-0.00029347,0.00003185,0.00012100,0.00031411,0.
 00020267,-0.00012472,0.00016316,-0.00010423,-0.00033823,-0.00013048,-0
 .00065341,0.00122985,-0.00103157,0.00042879,0.00002221,0.00000336,0.00
 001830,0.00024620,0.00019641,-0.00014501,0.00000378,0.00001016,0.00000
 585,-0.00000336,-0.00014142,0.00023334,0.00007525,-0.00000792,0.000102
 07,-0.00006484,0.00006093,-0.00005995,0.03498762,-0.00312954,0.0010672
 2,0.00145890,0.00091371,0.00231987,0.00006555,-0.00019863,0.00020311,-
 0.00005093,0.00006025,-0.00014648,0.00000010,0.00008160,-0.00004543,-0
 .00579249,0.00294611,-0.00698487,0.00074268,-0.00134811,0.00079795,0.0
 0368215,0.00009052,-0.00160468,-0.00005211,0.00006409,-0.00003286,0.00
 090127,0.00039096,0.00177796,0.00034534,-0.00012037,-0.00008110,-0.000
 14621,0.00004110,-0.00004259,-0.00011684,0.00000728,0.00005817,-0.0000
 8322,0.00006661,0.00001715,0.01693593,0.00178415,-0.08327121,-0.014331
 64,0.00798301,0.01255712,-0.05341381,-0.00754173,-0.00464497,0.0133292
 1,-0.00195581,0.07796949\\-0.00000080,0.00000003,0.00000054,-0.0000000
 6,0.00000030,-0.00000040,0.00000027,0.00000060,0.00000037,-0.00000004,
 -0.00000045,0.00000020,0.00000097,0.00000010,-0.00000060,0.00000053,0.
 00000129,0.00000086,-0.00000003,-0.00000006,-0.00000003,-0.00000004,-0
 .00000044,-0.00000001,-0.00000051,-0.00000009,0.00000039,-0.00000029,-
 0.00000034,-0.00000024,-0.00000193,-0.00000405,-0.00000353,0.00000154,
 0.00000733,0.00000297,-0.00000117,0.00000083,0.00000028,-0.00000156,-0
 .00000315,-0.00000276,0.00000157,-0.00000068,-0.00000012,0.00000353,0.
 00000410,0.00000615,0.00000078,-0.00000039,0.00000011,0.,-0.00000003,0
 .00000058,0.00000044,-0.00000006,-0.00000034,0.00000054,0.00000126,0.0
 0000094,-0.00000183,-0.00000661,-0.00000363,-0.00000011,0.00000335,-0.
 00000062,-0.00000360,-0.00000626,-0.00000515,0.00000102,0.,0.00000268,
 0.00000511,-0.00000295,-0.00000024,0.00000104,-0.00000034,-0.00000012,
 -0.00000067,0.00000333,-0.00000034,0.00000276,0.00000012,-0.00000293,-
 0.00000233,0.00000126,0.00000075,-0.00000210,-0.00000297,0.00000160,-0
 .00000359,0.00000085,-0.00000024,-0.00000080,0.00000169,0.00000442,-0.
 00000292,-0.00000181,0.00000161,0.00000138,-0.00000040,0.00000079,0.00
 000136,0.00000020,-0.00000412,0.00000298,0.00000373,-0.00000156,-0.000
 00554,0.00000242,-0.00000024,0.00000029,0.00000047,-0.00000075,0.00000
 133,0.00000003,0.00000325,0.00000252,-0.00000217,-0.00000048\\\@
 The archive entry for this job was punched.


 THE MOLECULE ALSO HAS A BODY.  WHEN THIS BODY IS HIT, THE MOLECULE
 FEELS HURT ALL OVER -- A. KITAIGORODSKI
 Job cpu time:       7 days  3 hours  5 minutes 49.6 seconds.
 Elapsed time:       0 days  5 hours 24 minutes 41.2 seconds.
 File lengths (MBytes):  RWF=   6428 Int=      0 D2E=      0 Chk=     85 Scr=      1
 Normal termination of Gaussian 16 at Mon Nov 13 09:49:00 2023.
