 Entering Gaussian System, Link 0=g16
 Input=ph_3ph4cf3_8_1_m062x.com
 Output=ph_3ph4cf3_8_1_m062x.log
 Initial command:
 /arc/software/Gaussian/g16.c01/l1.exe "/tmp/Gau-95300.inp" -scrdir="/tmp/"
 Entering Link 1 = /arc/software/Gaussian/g16.c01/l1.exe PID=     95302.
  
 Copyright (c) 1988-2019, Gaussian, Inc.  All Rights Reserved.
  
 This is part of the Gaussian(R) 16 program.  It is based on
 the Gaussian(R) 09 system (copyright 2009, Gaussian, Inc.),
 the Gaussian(R) 03 system (copyright 2003, Gaussian, Inc.),
 the Gaussian(R) 98 system (copyright 1998, Gaussian, Inc.),
 the Gaussian(R) 94 system (copyright 1995, Gaussian, Inc.),
 the Gaussian 92(TM) system (copyright 1992, Gaussian, Inc.),
 the Gaussian 90(TM) system (copyright 1990, Gaussian, Inc.),
 the Gaussian 88(TM) system (copyright 1988, Gaussian, Inc.),
 the Gaussian 86(TM) system (copyright 1986, Carnegie Mellon
 University), and the Gaussian 82(TM) system (copyright 1983,
 Carnegie Mellon University). Gaussian is a federally registered
 trademark of Gaussian, Inc.
  
 This software contains proprietary and confidential information,
 including trade secrets, belonging to Gaussian, Inc.
  
 This software is provided under written license and may be
 used, copied, transmitted, or stored only in accord with that
 written license.
  
 The following legend is applicable only to US Government
 contracts under FAR:
  
                    RESTRICTED RIGHTS LEGEND
  
 Use, reproduction and disclosure by the US Government is
 subject to restrictions as set forth in subparagraphs (a)
 and (c) of the Commercial Computer Software - Restricted
 Rights clause in FAR 52.227-19.
  
 Gaussian, Inc.
 340 Quinnipiac St., Bldg. 40, Wallingford CT 06492
  
  
 ---------------------------------------------------------------
 Warning -- This program may not be used in any manner that
 competes with the business of Gaussian, Inc. or will provide
 assistance to any competitor of Gaussian, Inc.  The licensee
 of this program is prohibited from giving any competitor of
 Gaussian, Inc. access to this program.  By using this program,
 the user acknowledges that Gaussian, Inc. is engaged in the
 business of creating and licensing software in the field of
 computational chemistry and represents and warrants to the
 licensee that it is not a competitor of Gaussian, Inc. and that
 it will not use this program in any manner prohibited above.
 ---------------------------------------------------------------
  

 Cite this work as:
 Gaussian 16, Revision C.01,
 M. J. Frisch, G. W. Trucks, H. B. Schlegel, G. E. Scuseria, 
 M. A. Robb, J. R. Cheeseman, G. Scalmani, V. Barone, 
 G. A. Petersson, H. Nakatsuji, X. Li, M. Caricato, A. V. Marenich, 
 J. Bloino, B. G. Janesko, R. Gomperts, B. Mennucci, H. P. Hratchian, 
 J. V. Ortiz, A. F. Izmaylov, J. L. Sonnenberg, D. Williams-Young, 
 F. Ding, F. Lipparini, F. Egidi, J. Goings, B. Peng, A. Petrone, 
 T. Henderson, D. Ranasinghe, V. G. Zakrzewski, J. Gao, N. Rega, 
 G. Zheng, W. Liang, M. Hada, M. Ehara, K. Toyota, R. Fukuda, 
 J. Hasegawa, M. Ishida, T. Nakajima, Y. Honda, O. Kitao, H. Nakai, 
 T. Vreven, K. Throssell, J. A. Montgomery, Jr., J. E. Peralta, 
 F. Ogliaro, M. J. Bearpark, J. J. Heyd, E. N. Brothers, K. N. Kudin, 
 V. N. Staroverov, T. A. Keith, R. Kobayashi, J. Normand, 
 K. Raghavachari, A. P. Rendell, J. C. Burant, S. S. Iyengar, 
 J. Tomasi, M. Cossi, J. M. Millam, M. Klene, C. Adamo, R. Cammi, 
 J. W. Ochterski, R. L. Martin, K. Morokuma, O. Farkas, 
 J. B. Foresman, and D. J. Fox, Gaussian, Inc., Wallingford CT, 2019.
 
 ******************************************
 Gaussian 16:  ES64L-G16RevC.01  3-Jul-2019
                31-Oct-2023 
 ******************************************
 %nprocshared=32
 Will use up to   32 processors via shared memory.
 %mem=8000MB
 %chk=ph_3ph4cf3_8_1_m062x.chk
 -----------------------------------------
 # opt freq=noraman m062x def2tzvp pop=nbo
 -----------------------------------------
 1/18=20,19=15,26=3,38=1/1,3;
 2/9=110,12=2,17=6,18=5,40=1/2;
 3/5=44,7=101,11=2,25=1,30=1,71=1,74=-55/1,2,3;
 4//1;
 5/5=2,38=5/2;
 6/7=2,8=2,9=2,10=2,28=1,40=1/1,7;
 7//1,2,3,16;
 1/18=20,19=15,26=3/3(2);
 2/9=110/2;
 99//99;
 2/9=110/2;
 3/5=44,7=101,11=2,25=1,30=1,71=1,74=-55/1,2,3;
 4/5=5,16=3,69=1/1;
 5/5=2,38=5/2;
 7//1,2,3,16;
 1/18=20,19=15,26=3/3(-5);
 2/9=110/2;
 6/7=2,8=2,9=2,10=2,19=2,28=1,40=1/1,7;
 99/9=1/99;
 ------------
 Structure697
 ------------
 Symbolic Z-matrix:
 Charge =  0 Multiplicity = 1
 C                    -2.3119   -0.0506    0.657 
 C                    -1.8441   -0.9479   -0.3127 
 C                    -0.7488   -0.6274   -1.1111 
 C                    -0.1113    0.599    -0.9458 
 C                    -0.5608    1.5046    0.0112 
 C                    -1.6556    1.1785    0.808 
 H                    -0.3942   -1.3284   -1.8528 
 H                    -0.0654    2.4569    0.1333 
 H                    -2.3216   -1.908    -0.4415 
 H                    -2.0034    1.8951    1.5374 
 C                    -5.6987   -1.048     3.1144 
 C                    -4.6214   -0.3544    3.6611 
 C                    -3.5249   -0.0319    2.8637 
 C                    -3.4857   -0.3969    1.5118 
 C                    -4.5814   -1.0955    0.9844 
 C                    -5.6944   -1.4289    1.7679 
 H                    -2.6922    0.494     3.3072 
 H                    -4.5802   -1.3638   -0.0617 
 H                     0.7382    0.85     -1.5648 
 H                    -4.6329   -0.0719    4.7038 
 H                    -6.5383   -1.3007    3.746 
 C                    -9.0173   -3.5654    0.0755 
 C                    -7.7068   -3.9861   -0.1733 
 C                    -6.6318   -3.2915    0.3756 
 C                    -6.8452   -2.1686    1.1817 
 C                    -8.1575   -1.7521    1.4276 
 C                    -9.236    -2.4422    0.8798 
 H                    -7.5189   -4.8526   -0.7922 
 H                    -5.6259   -3.6346    0.1817 
 H                    -8.3425   -0.8805    2.0386 
 H                    -10.242   -2.0994    1.0788 
 C                    -10.2006  -4.3285   -0.5245 
 F                    -11.2824  -4.2351    0.2512 
 F                    -10.4892  -3.8097   -1.7174 
 F                    -9.9133   -5.622    -0.6834 
 

 GradGradGradGradGradGradGradGradGradGradGradGradGradGradGradGradGradGrad
 Berny optimization.
 Initialization pass.
                           ----------------------------
                           !    Initial Parameters    !
                           ! (Angstroms and Degrees)  !
 --------------------------                            --------------------------
 ! Name  Definition              Value          Derivative Info.                !
 --------------------------------------------------------------------------------
 ! R1    R(1,2)                  1.4015         estimate D2E/DX2                !
 ! R2    R(1,6)                  1.4015         estimate D2E/DX2                !
 ! R3    R(1,14)                 1.4928         estimate D2E/DX2                !
 ! R4    R(2,3)                  1.3928         estimate D2E/DX2                !
 ! R5    R(2,9)                  1.08           estimate D2E/DX2                !
 ! R6    R(3,4)                  1.392          estimate D2E/DX2                !
 ! R7    R(3,7)                  1.0804         estimate D2E/DX2                !
 ! R8    R(4,5)                  1.3921         estimate D2E/DX2                !
 ! R9    R(4,19)                 1.0807         estimate D2E/DX2                !
 ! R10   R(5,6)                  1.3928         estimate D2E/DX2                !
 ! R11   R(5,8)                  1.0804         estimate D2E/DX2                !
 ! R12   R(6,10)                 1.08           estimate D2E/DX2                !
 ! R13   R(11,12)                1.393          estimate D2E/DX2                !
 ! R14   R(11,16)                1.3993         estimate D2E/DX2                !
 ! R15   R(11,21)                1.0806         estimate D2E/DX2                !
 ! R16   R(12,13)                1.3936         estimate D2E/DX2                !
 ! R17   R(12,20)                1.0804         estimate D2E/DX2                !
 ! R18   R(13,14)                1.4009         estimate D2E/DX2                !
 ! R19   R(13,17)                1.0801         estimate D2E/DX2                !
 ! R20   R(14,15)                1.4024         estimate D2E/DX2                !
 ! R21   R(15,16)                1.4014         estimate D2E/DX2                !
 ! R22   R(15,18)                1.08           estimate D2E/DX2                !
 ! R23   R(16,25)                1.4883         estimate D2E/DX2                !
 ! R24   R(22,23)                1.3987         estimate D2E/DX2                !
 ! R25   R(22,27)                1.3987         estimate D2E/DX2                !
 ! R26   R(22,32)                1.5305         estimate D2E/DX2                !
 ! R27   R(23,24)                1.3926         estimate D2E/DX2                !
 ! R28   R(23,28)                1.0813         estimate D2E/DX2                !
 ! R29   R(24,25)                1.3987         estimate D2E/DX2                !
 ! R30   R(24,29)                1.0803         estimate D2E/DX2                !
 ! R31   R(25,26)                1.3986         estimate D2E/DX2                !
 ! R32   R(26,27)                1.3927         estimate D2E/DX2                !
 ! R33   R(26,30)                1.0804         estimate D2E/DX2                !
 ! R34   R(27,31)                1.0813         estimate D2E/DX2                !
 ! R35   R(32,33)                1.3344         estimate D2E/DX2                !
 ! R36   R(32,34)                1.3325         estimate D2E/DX2                !
 ! R37   R(32,35)                1.3345         estimate D2E/DX2                !
 ! A1    A(2,1,6)              118.6666         estimate D2E/DX2                !
 ! A2    A(2,1,14)             120.6718         estimate D2E/DX2                !
 ! A3    A(6,1,14)             120.6616         estimate D2E/DX2                !
 ! A4    A(1,2,3)              120.7822         estimate D2E/DX2                !
 ! A5    A(1,2,9)              120.2712         estimate D2E/DX2                !
 ! A6    A(3,2,9)              118.9405         estimate D2E/DX2                !
 ! A7    A(2,3,4)              119.657          estimate D2E/DX2                !
 ! A8    A(2,3,7)              120.1547         estimate D2E/DX2                !
 ! A9    A(4,3,7)              120.188          estimate D2E/DX2                !
 ! A10   A(3,4,5)              120.4556         estimate D2E/DX2                !
 ! A11   A(3,4,19)             119.7761         estimate D2E/DX2                !
 ! A12   A(5,4,19)             119.7683         estimate D2E/DX2                !
 ! A13   A(4,5,6)              119.6552         estimate D2E/DX2                !
 ! A14   A(4,5,8)              120.201          estimate D2E/DX2                !
 ! A15   A(6,5,8)              120.1435         estimate D2E/DX2                !
 ! A16   A(1,6,5)              120.7833         estimate D2E/DX2                !
 ! A17   A(1,6,10)             120.254          estimate D2E/DX2                !
 ! A18   A(5,6,10)             118.9561         estimate D2E/DX2                !
 ! A19   A(12,11,16)           120.7162         estimate D2E/DX2                !
 ! A20   A(12,11,21)           119.2042         estimate D2E/DX2                !
 ! A21   A(16,11,21)           120.0761         estimate D2E/DX2                !
 ! A22   A(11,12,13)           119.9432         estimate D2E/DX2                !
 ! A23   A(11,12,20)           120.049          estimate D2E/DX2                !
 ! A24   A(13,12,20)           120.0068         estimate D2E/DX2                !
 ! A25   A(12,13,14)           120.9244         estimate D2E/DX2                !
 ! A26   A(12,13,17)           118.9671         estimate D2E/DX2                !
 ! A27   A(14,13,17)           120.1022         estimate D2E/DX2                !
 ! A28   A(1,14,13)            120.9419         estimate D2E/DX2                !
 ! A29   A(1,14,15)            120.9682         estimate D2E/DX2                !
 ! A30   A(13,14,15)           118.0898         estimate D2E/DX2                !
 ! A31   A(14,15,16)           121.9235         estimate D2E/DX2                !
 ! A32   A(14,15,18)           119.1544         estimate D2E/DX2                !
 ! A33   A(16,15,18)           118.9044         estimate D2E/DX2                !
 ! A34   A(11,16,15)           118.4029         estimate D2E/DX2                !
 ! A35   A(11,16,25)           120.7903         estimate D2E/DX2                !
 ! A36   A(15,16,25)           120.8068         estimate D2E/DX2                !
 ! A37   A(23,22,27)           119.3627         estimate D2E/DX2                !
 ! A38   A(23,22,32)           120.3108         estimate D2E/DX2                !
 ! A39   A(27,22,32)           120.3265         estimate D2E/DX2                !
 ! A40   A(22,23,24)           120.2071         estimate D2E/DX2                !
 ! A41   A(22,23,28)           120.3761         estimate D2E/DX2                !
 ! A42   A(24,23,28)           119.4168         estimate D2E/DX2                !
 ! A43   A(23,24,25)           120.652          estimate D2E/DX2                !
 ! A44   A(23,24,29)           119.3136         estimate D2E/DX2                !
 ! A45   A(25,24,29)           120.0312         estimate D2E/DX2                !
 ! A46   A(16,25,24)           120.5332         estimate D2E/DX2                !
 ! A47   A(16,25,26)           120.5475         estimate D2E/DX2                !
 ! A48   A(24,25,26)           118.9193         estimate D2E/DX2                !
 ! A49   A(25,26,27)           120.6579         estimate D2E/DX2                !
 ! A50   A(25,26,30)           120.0232         estimate D2E/DX2                !
 ! A51   A(27,26,30)           119.3152         estimate D2E/DX2                !
 ! A52   A(22,27,26)           120.2009         estimate D2E/DX2                !
 ! A53   A(22,27,31)           120.3912         estimate D2E/DX2                !
 ! A54   A(26,27,31)           119.4075         estimate D2E/DX2                !
 ! A55   A(22,32,33)           111.3451         estimate D2E/DX2                !
 ! A56   A(22,32,34)           108.9225         estimate D2E/DX2                !
 ! A57   A(22,32,35)           111.3151         estimate D2E/DX2                !
 ! A58   A(33,32,34)           108.5161         estimate D2E/DX2                !
 ! A59   A(33,32,35)           108.1545         estimate D2E/DX2                !
 ! A60   A(34,32,35)           108.5069         estimate D2E/DX2                !
 ! D1    D(6,1,2,3)              0.0331         estimate D2E/DX2                !
 ! D2    D(6,1,2,9)            179.1261         estimate D2E/DX2                !
 ! D3    D(14,1,2,3)          -179.9729         estimate D2E/DX2                !
 ! D4    D(14,1,2,9)            -0.88           estimate D2E/DX2                !
 ! D5    D(2,1,6,5)              0.0398         estimate D2E/DX2                !
 ! D6    D(2,1,6,10)           179.1038         estimate D2E/DX2                !
 ! D7    D(14,1,6,5)          -179.9542         estimate D2E/DX2                !
 ! D8    D(14,1,6,10)           -0.8902         estimate D2E/DX2                !
 ! D9    D(2,1,14,13)          142.0322         estimate D2E/DX2                !
 ! D10   D(2,1,14,15)          -38.0414         estimate D2E/DX2                !
 ! D11   D(6,1,14,13)          -37.974          estimate D2E/DX2                !
 ! D12   D(6,1,14,15)          141.9524         estimate D2E/DX2                !
 ! D13   D(1,2,3,4)             -0.0691         estimate D2E/DX2                !
 ! D14   D(1,2,3,7)            179.7509         estimate D2E/DX2                !
 ! D15   D(9,2,3,4)           -179.1739         estimate D2E/DX2                !
 ! D16   D(9,2,3,7)              0.6461         estimate D2E/DX2                !
 ! D17   D(2,3,4,5)              0.0324         estimate D2E/DX2                !
 ! D18   D(2,3,4,19)          -179.9488         estimate D2E/DX2                !
 ! D19   D(7,3,4,5)           -179.7876         estimate D2E/DX2                !
 ! D20   D(7,3,4,19)             0.2313         estimate D2E/DX2                !
 ! D21   D(3,4,5,6)              0.0396         estimate D2E/DX2                !
 ! D22   D(3,4,5,8)           -179.755          estimate D2E/DX2                !
 ! D23   D(19,4,5,6)          -179.9793         estimate D2E/DX2                !
 ! D24   D(19,4,5,8)             0.2262         estimate D2E/DX2                !
 ! D25   D(4,5,6,1)             -0.0761         estimate D2E/DX2                !
 ! D26   D(4,5,6,10)          -179.152          estimate D2E/DX2                !
 ! D27   D(8,5,6,1)            179.7186         estimate D2E/DX2                !
 ! D28   D(8,5,6,10)             0.6427         estimate D2E/DX2                !
 ! D29   D(16,11,12,13)          0.0689         estimate D2E/DX2                !
 ! D30   D(16,11,12,20)       -179.5549         estimate D2E/DX2                !
 ! D31   D(21,11,12,13)        179.3831         estimate D2E/DX2                !
 ! D32   D(21,11,12,20)         -0.2407         estimate D2E/DX2                !
 ! D33   D(12,11,16,15)         -0.0153         estimate D2E/DX2                !
 ! D34   D(12,11,16,25)       -179.9282         estimate D2E/DX2                !
 ! D35   D(21,11,16,15)       -179.3235         estimate D2E/DX2                !
 ! D36   D(21,11,16,25)          0.7636         estimate D2E/DX2                !
 ! D37   D(11,12,13,14)         -0.07           estimate D2E/DX2                !
 ! D38   D(11,12,13,17)       -179.1512         estimate D2E/DX2                !
 ! D39   D(20,12,13,14)        179.554          estimate D2E/DX2                !
 ! D40   D(20,12,13,17)          0.4727         estimate D2E/DX2                !
 ! D41   D(12,13,14,1)         179.9456         estimate D2E/DX2                !
 ! D42   D(12,13,14,15)          0.0172         estimate D2E/DX2                !
 ! D43   D(17,13,14,1)          -0.9835         estimate D2E/DX2                !
 ! D44   D(17,13,14,15)        179.0881         estimate D2E/DX2                !
 ! D45   D(1,14,15,16)        -179.8908         estimate D2E/DX2                !
 ! D46   D(1,14,15,18)          -1.4407         estimate D2E/DX2                !
 ! D47   D(13,14,15,16)          0.0376         estimate D2E/DX2                !
 ! D48   D(13,14,15,18)        178.4877         estimate D2E/DX2                !
 ! D49   D(14,15,16,11)         -0.0386         estimate D2E/DX2                !
 ! D50   D(14,15,16,25)        179.8743         estimate D2E/DX2                !
 ! D51   D(18,15,16,11)       -178.4925         estimate D2E/DX2                !
 ! D52   D(18,15,16,25)          1.4204         estimate D2E/DX2                !
 ! D53   D(11,16,25,24)       -133.9479         estimate D2E/DX2                !
 ! D54   D(11,16,25,26)         46.0673         estimate D2E/DX2                !
 ! D55   D(15,16,25,24)         46.1413         estimate D2E/DX2                !
 ! D56   D(15,16,25,26)       -133.8436         estimate D2E/DX2                !
 ! D57   D(27,22,23,24)         -0.0062         estimate D2E/DX2                !
 ! D58   D(27,22,23,28)        179.962          estimate D2E/DX2                !
 ! D59   D(32,22,23,24)       -179.8902         estimate D2E/DX2                !
 ! D60   D(32,22,23,28)          0.078          estimate D2E/DX2                !
 ! D61   D(23,22,27,26)         -0.0713         estimate D2E/DX2                !
 ! D62   D(23,22,27,31)        179.6833         estimate D2E/DX2                !
 ! D63   D(32,22,27,26)        179.8127         estimate D2E/DX2                !
 ! D64   D(32,22,27,31)         -0.4327         estimate D2E/DX2                !
 ! D65   D(23,22,32,33)        150.5706         estimate D2E/DX2                !
 ! D66   D(23,22,32,34)        -89.7988         estimate D2E/DX2                !
 ! D67   D(23,22,32,35)         29.8019         estimate D2E/DX2                !
 ! D68   D(27,22,32,33)        -29.3123         estimate D2E/DX2                !
 ! D69   D(27,22,32,34)         90.3183         estimate D2E/DX2                !
 ! D70   D(27,22,32,35)       -150.081          estimate D2E/DX2                !
 ! D71   D(22,23,24,25)          0.0753         estimate D2E/DX2                !
 ! D72   D(22,23,24,29)        179.4245         estimate D2E/DX2                !
 ! D73   D(28,23,24,25)       -179.8932         estimate D2E/DX2                !
 ! D74   D(28,23,24,29)         -0.544          estimate D2E/DX2                !
 ! D75   D(23,24,25,16)        179.949          estimate D2E/DX2                !
 ! D76   D(23,24,25,26)         -0.0659         estimate D2E/DX2                !
 ! D77   D(29,24,25,16)          0.6044         estimate D2E/DX2                !
 ! D78   D(29,24,25,26)       -179.4105         estimate D2E/DX2                !
 ! D79   D(16,25,26,27)        179.973          estimate D2E/DX2                !
 ! D80   D(16,25,26,30)          0.6719         estimate D2E/DX2                !
 ! D81   D(24,25,26,27)         -0.0121         estimate D2E/DX2                !
 ! D82   D(24,25,26,30)       -179.3132         estimate D2E/DX2                !
 ! D83   D(25,26,27,22)          0.0808         estimate D2E/DX2                !
 ! D84   D(25,26,27,31)       -179.6761         estimate D2E/DX2                !
 ! D85   D(30,26,27,22)        179.3868         estimate D2E/DX2                !
 ! D86   D(30,26,27,31)         -0.3701         estimate D2E/DX2                !
 --------------------------------------------------------------------------------
 Trust Radius=3.00D-01 FncErr=1.00D-07 GrdErr=1.00D-06 EigMax=2.50D+02 EigMin=1.00D-04
 Number of steps in this run=    193 maximum allowed number of steps=    210.
 GradGradGradGradGradGradGradGradGradGradGradGradGradGradGradGradGradGrad

                          Input orientation:                          
 ---------------------------------------------------------------------
 Center     Atomic      Atomic             Coordinates (Angstroms)
 Number     Number       Type             X           Y           Z
 ---------------------------------------------------------------------
      1          6           0       -2.311900   -0.050600    0.657000
      2          6           0       -1.844100   -0.947900   -0.312700
      3          6           0       -0.748800   -0.627400   -1.111100
      4          6           0       -0.111300    0.599000   -0.945800
      5          6           0       -0.560800    1.504600    0.011200
      6          6           0       -1.655600    1.178500    0.808000
      7          1           0       -0.394200   -1.328400   -1.852800
      8          1           0       -0.065400    2.456900    0.133300
      9          1           0       -2.321600   -1.908000   -0.441500
     10          1           0       -2.003400    1.895100    1.537400
     11          6           0       -5.698700   -1.048000    3.114400
     12          6           0       -4.621400   -0.354400    3.661100
     13          6           0       -3.524900   -0.031900    2.863700
     14          6           0       -3.485700   -0.396900    1.511800
     15          6           0       -4.581400   -1.095500    0.984400
     16          6           0       -5.694400   -1.428900    1.767900
     17          1           0       -2.692200    0.494000    3.307200
     18          1           0       -4.580200   -1.363800   -0.061700
     19          1           0        0.738200    0.850000   -1.564800
     20          1           0       -4.632900   -0.071900    4.703800
     21          1           0       -6.538300   -1.300700    3.746000
     22          6           0       -9.017300   -3.565400    0.075500
     23          6           0       -7.706800   -3.986100   -0.173300
     24          6           0       -6.631800   -3.291500    0.375600
     25          6           0       -6.845200   -2.168600    1.181700
     26          6           0       -8.157500   -1.752100    1.427600
     27          6           0       -9.236000   -2.442200    0.879800
     28          1           0       -7.518900   -4.852600   -0.792200
     29          1           0       -5.625900   -3.634600    0.181700
     30          1           0       -8.342500   -0.880500    2.038600
     31          1           0      -10.242000   -2.099400    1.078800
     32          6           0      -10.200600   -4.328500   -0.524500
     33          9           0      -11.282400   -4.235100    0.251200
     34          9           0      -10.489200   -3.809700   -1.717400
     35          9           0       -9.913300   -5.622000   -0.683400
 ---------------------------------------------------------------------
                    Distance matrix (angstroms):
                    1          2          3          4          5
     1  C    0.000000
     2  C    1.401536   0.000000
     3  C    2.429436   1.392783   0.000000
     4  C    2.798855   2.407553   1.392044   0.000000
     5  C    2.429415   2.786849   2.416676   1.392124   0.000000
     6  C    1.401505   2.411032   2.786845   2.407592   1.392774
     7  H    3.407263   2.149162   1.080399   2.148849   3.395312
     8  H    3.407137   3.867215   3.395361   2.149036   1.080373
     9  H    2.157946   1.079994   2.135884   3.380058   3.866677
    10  H    2.157782   3.395717   3.866727   3.380266   2.136088
    11  C    4.301632   5.158777   6.521753   7.100484   6.522548
    12  C    3.801408   4.884335   6.151866   6.517170   5.767679
    13  C    2.518183   3.708593   4.884709   5.153930   4.391296
    14  C    1.492787   2.515403   3.797809   4.291642   3.797702
    15  C    2.519849   3.032666   4.393070   5.155463   4.885986
    16  C    3.817737   4.402848   5.778408   6.530509   6.168084
    17  H    2.732174   3.987734   4.955372   4.975950   4.053122
    18  H    2.717758   2.778888   4.040192   4.960371   4.938482
    19  H    3.879508   3.386513   2.144697   1.080654   2.144686
    20  H    4.665199   5.806036   7.014833   7.267252   6.409980
    21  H    5.382112   6.215547   7.587033   8.180964   7.586102
    22  C    7.593046   7.645705   8.854827   9.884438   9.860093
    23  C    6.729228   6.604646   7.782936   8.905701   9.013720
    24  C    5.407786   5.374783   6.627020   7.707075   7.745476
    25  C    5.031108   5.360442   6.693155   7.584937   7.372662
    26  C    6.136772   6.598060   7.911939   8.712177   8.385829
    27  C    7.328885   7.635128   8.904479   9.789886   9.570308
    28  H    7.229954   6.905068   7.986756   9.198700   9.459101
    29  H    4.904443   4.665276   5.873729   7.043113   7.217734
    30  H    6.242250   6.911032   8.224898   8.879652   8.387724
    31  H    8.201340   8.589933   9.853085  10.677614  10.385289
    32  C    9.051406   9.016896  10.167535  11.236179  11.279972
    33  F    9.906795  10.010253  11.217312  12.230896  12.163653
    34  F    9.307891   9.214165  10.264990  11.301894  11.393111
    35  F    9.519372   9.332557  10.445909  11.612446  11.778801
                    6          7          8          9         10
     6  C    0.000000
     7  H    3.867239   0.000000
     8  H    2.149014   4.287330   0.000000
     9  H    3.395775   2.458165   4.947038   0.000000
    10  H    1.080048   4.947114   2.458243   4.298938   0.000000
    11  C    5.159791   7.272511   7.273606   4.978838   4.980362
    12  C    4.391575   7.015767   6.411390   4.953189   4.052687
    13  C    3.030718   5.807544   5.061358   3.986481   2.790585
    14  C    2.515251   4.663218   4.662927   2.730189   2.729676
    15  C    3.709784   5.063259   5.808457   2.792856   3.986926
    16  C    4.902229   6.419633   7.032567   4.060390   4.972483
    17  H    2.790892   5.935280   4.563627   4.467628   2.360025
    18  H    3.971518   4.553228   5.917702   2.354076   4.451679
    19  H    3.386498   2.471983   2.472134   4.269747   4.269924
    20  H    5.060146   7.907868   6.938758   5.931904   4.561737
    21  H    6.214422   8.312478   8.310812   5.973653   5.971295
    22  C    8.788388   9.114843  10.789252   6.917128   9.008274
    23  C    8.015801   7.959787   9.999862   5.778478   8.369216
    24  C    6.703017   6.908486   8.730431   4.599951   7.047885
    25  C    6.186653   7.178407   8.274061   4.813070   6.331130
    26  C    7.158703   8.438565   9.212653   6.129891   7.154514
    27  C    8.401017   9.321217  10.423931   7.059754   8.459025
    28  H    8.562307   8.019115  10.480458   5.983777   9.021044
    29  H    6.270683   6.068643   8.247901   3.779937   6.748186
    30  H    7.104118   8.861099   9.125721   6.592260   6.938252
    31  H    9.194793  10.303780  11.190041   8.067260   9.167381
    32  C   10.252786  10.340719  12.214607   8.242836  10.496605
    33  F   11.058588  11.464232  13.062077   9.283920  11.195245
    34  F   10.454294  10.396356  12.302478   8.482575  10.730669
    35  F   10.800958  10.507890  12.763885   8.454952  11.135765
                   11         12         13         14         15
    11  C    0.000000
    12  C    1.393032   0.000000
    13  C    2.412616   1.393616   0.000000
    14  C    2.808848   2.431278   1.400855   0.000000
    15  C    2.405726   2.777688   2.403998   1.402409   0.000000
    16  C    1.399345   2.426950   2.803412   2.451319   1.401355
    17  H    3.384373   2.137017   1.080117   2.155645   3.389836
    18  H    3.382068   3.857438   3.383132   2.146795   1.079959
    19  H    8.181137   7.581947   6.209942   5.372295   6.211404
    20  H    2.148230   1.080353   2.148309   3.407427   3.858024
    21  H    1.080604   2.139439   3.386574   3.889328   3.390870
    22  C    5.156096   6.518511   7.101136   6.534596   5.157879
    23  C    4.844984   6.116499   6.507484   5.791339   4.411798
    24  C    3.661283   4.843839   5.144751   4.423529   3.065484
    25  C    2.511083   3.792629   4.291737   3.812365   2.513018
    26  C    3.063780   4.409772   5.146111   4.865118   3.662791
    27  C    4.410184   5.778328   6.508615   6.135848   4.846632
    28  H    5.748881   6.961407   7.249606   6.436488   5.089304
    29  H    3.911078   4.886201   4.958505   4.102721   2.860478
    30  H    2.859210   4.093394   4.960865   4.909164   3.911961
    31  H    5.088289   6.426853   7.251197   6.980944   5.749706
    32  C    6.653599   8.027465   8.631665   8.043250   6.656161
    33  F    7.037985   8.429482   9.201677   8.781197   7.436267
    34  F    7.343172   8.677467   9.152034   8.433502   7.040505
    35  F    7.287497   8.638663   9.200152   8.569400   7.190265
                   16         17         18         19         20
    16  C    0.000000
    17  H    3.883323   0.000000
    18  H    2.143156   4.285493   0.000000
    19  H    7.594644   5.969151   5.953621   0.000000
    20  H    3.404077   2.457041   4.937790   8.306260   0.000000
    21  H    2.154410   4.266846   4.282139   9.261618   2.461276
    22  C    4.297734   8.181045   4.955171  10.833103   7.269709
    23  C    3.789101   7.571749   4.082222   9.830674   6.968208
    24  C    2.507289   6.200382   2.848916   8.673758   5.752803
    25  C    1.488330   5.371648   2.706284   8.611804   4.657855
    26  C    2.507414   6.200594   3.894338   9.739551   5.096996
    27  C    3.789252   7.571979   4.870918  10.784216   6.436601
    28  H    4.648079   8.287837   4.619666  10.064604   7.835184
    29  H    2.717689   5.951528   2.511825   7.978952   5.841940
    30  H    2.717803   5.951847   4.335867   9.921604   4.638778
    31  H    4.648128   8.288002   5.822184  11.672719   6.979497
    32  C    5.828260   9.711565   6.371226  12.147281   8.743743
    33  F    6.434352  10.271079   7.298065  13.177668   9.020739
    34  F    6.387929  10.225539   6.606062  12.156916   9.460402
    35  F    6.433512  10.270084   6.852790  12.494723   9.365263
                   21         22         23         24         25
    21  H    0.000000
    22  C    4.974623   0.000000
    23  C    4.892615   1.398678   0.000000
    24  C    3.915562   2.419854   1.392618   0.000000
    25  C    2.724532   2.809403   2.425219   1.398657   0.000000
    26  C    2.863660   2.419811   2.785097   2.409194   1.398596
    27  C    4.098257   1.398680   2.414767   2.785208   2.425268
    28  H    5.845753   2.157543   1.081280   2.141900   3.399119
    29  H    4.357040   3.393768   2.140029   1.080347   2.153102
    30  H    2.519310   3.393789   3.865407   3.391900   2.152995
    31  H    4.633494   2.157697   3.399210   3.866411   3.399063
    32  C    6.388833   1.530529   2.541578   3.823857   4.339930
    33  F    6.582615   2.368554   3.609310   4.746992   4.982469
    34  F    7.193986   2.332523   3.187022   4.419131   4.937279
    35  F    7.048677   2.368195   2.793745   4.161845   4.981747
                   26         27         28         29         30
    26  C    0.000000
    27  C    1.392654   0.000000
    28  H    3.866319   3.399124   0.000000
    29  H    3.391913   3.865486   2.452642   0.000000
    30  H    1.080385   2.140109   4.946648   4.291044   0.000000
    31  H    2.141826   1.081272   4.300701   4.946717   2.452557
    32  C    3.823976   2.541779   2.745516   4.680608   4.680889
    33  F    4.161034   2.792379   3.953975   5.688710   4.805325
    34  F    4.422846   3.191554   3.281207   5.223881   5.224564
    35  F    4.745027   3.607417   2.517333   4.804160   5.688455
                   31         32         33         34         35
    31  H    0.000000
    32  C    2.746119   0.000000
    33  F    2.515665   1.334438   0.000000
    34  F    3.287091   1.332462   2.164606   0.000000
    35  F    3.952481   1.334516   2.161343   2.164543   0.000000
 Stoichiometry    C19H13F3
 Framework group  C1[X(C19H13F3)]
 Deg. of freedom    99
 Full point group                 C1      NOp   1
 Largest Abelian subgroup         C1      NOp   1
 Largest concise Abelian subgroup C1      NOp   1
                         Standard orientation:                         
 ---------------------------------------------------------------------
 Center     Atomic      Atomic             Coordinates (Angstroms)
 Number     Number       Type             X           Y           Z
 ---------------------------------------------------------------------
      1          6           0       -3.915703   -0.237936    0.024273
      2          6           0       -3.836066   -1.526818   -0.520470
      3          6           0       -4.890030   -2.426411   -0.379982
      4          6           0       -6.035995   -2.042350    0.310705
      5          6           0       -6.134662   -0.766975    0.859973
      6          6           0       -5.078408    0.129247    0.715295
      7          1           0       -4.819452   -3.416126   -0.807469
      8          1           0       -7.024362   -0.474570    1.398617
      9          1           0       -2.958000   -1.832269   -1.070095
     10          1           0       -5.161310    1.110991    1.157798
     11          6           0       -0.652883    2.531299   -0.410902
     12          6           0       -1.967425    2.985814   -0.487928
     13          6           0       -3.023455    2.087476   -0.346667
     14          6           0       -2.784821    0.724478   -0.128295
     15          6           0       -1.453201    0.290585   -0.055644
     16          6           0       -0.376487    1.176817   -0.193765
     17          1           0       -4.036367    2.454688   -0.422930
     18          1           0       -1.249450   -0.752389    0.136714
     19          1           0       -6.854582   -2.739081    0.421577
     20          1           0       -2.168453    4.032749   -0.663077
     21          1           0        0.156807    3.236569   -0.532148
     22          6           0        3.677300   -0.229799    0.048629
     23          6           0        2.737013   -0.915812   -0.726967
     24          6           0        1.423865   -0.458396   -0.803114
     25          6           0        1.027340    0.689668   -0.109603
     26          6           0        1.971391    1.372135    0.664397
     27          6           0        3.285444    0.918025    0.745231
     28          1           0        3.022281   -1.804608   -1.272703
     29          1           0        0.711756   -0.994066   -1.413940
     30          1           0        1.681793    2.254609    1.216307
     31          1           0        3.997392    1.458291    1.353829
     32          6           0        5.121732   -0.728985    0.132004
     33          9           0        5.972695    0.278318    0.336770
     34          9           0        5.225454   -1.583878    1.148790
     35          9           0        5.483214   -1.357458   -0.988391
 ---------------------------------------------------------------------
 Rotational constants (GHZ):           0.6817090           0.1012638           0.0918023
 Standard basis: def2TZVP (5D, 7F)
 There are   870 symmetry adapted cartesian basis functions of A   symmetry.
 There are   760 symmetry adapted basis functions of A   symmetry.
   760 basis functions,  1226 primitive gaussians,   870 cartesian basis functions
    77 alpha electrons       77 beta electrons
       nuclear repulsion energy      1582.2497706580 Hartrees.
 NAtoms=   35 NActive=   35 NUniq=   35 SFac= 1.00D+00 NAtFMM=   60 NAOKFM=F Big=F
 Integral buffers will be    131072 words long.
 Raffenetti 2 integral format.
 Two-electron integral symmetry is turned on.
 One-electron integrals computed using PRISM.
   1 Symmetry operations used in ECPInt.
 ECPInt:  NShTT=   43365 NPrTT=  134944 LenC2=   34827 LenP2D=   76496.
 LDataN:  DoStor=T MaxTD1= 6 Len=  172
 NBasis=   760 RedAO= T EigKep=  6.80D-06  NBF=   760
 NBsUse=   760 1.00D-06 EigRej= -1.00D+00 NBFU=   760
 ExpMin= 9.52D-02 ExpMax= 3.55D+04 ExpMxC= 1.21D+03 IAcc=3 IRadAn=         5 AccDes= 0.00D+00
 Harris functional with IExCor= 1009 and IRadAn=       5 diagonalized for initial guess.
 HarFok:  IExCor= 1009 AccDes= 0.00D+00 IRadAn=         5 IDoV= 1 UseB2=F ITyADJ=14
 ICtDFT=  3500011 ScaDFX=  1.000000  1.000000  1.000000  1.000000
 FoFCou: FMM=F IPFlag=           0 FMFlag=      100000 FMFlg1=           0
         NFxFlg=           0 DoJE=T BraDBF=F KetDBF=T FulRan=T
         wScrn=  0.000000 ICntrl=       500 IOpCl=  0 I1Cent=   200000004 NGrid=           0
         NMat0=    1 NMatS0=      1 NMatT0=    0 NMatD0=    1 NMtDS0=    0 NMtDT0=    0
 Petite list used in FoFCou.
 Requested convergence on RMS density matrix=1.00D-08 within 128 cycles.
 Requested convergence on MAX density matrix=1.00D-06.
 Requested convergence on             energy=1.00D-06.
 No special actions if energy rises.
 Integral accuracy reduced to 1.0D-05 until final iterations.
 Problem detected with inexpensive integrals.
 Switching to full accuracy and repeating last cycle.
 SCF Done:  E(RM062X) =  -1031.40174830     A.U. after   14 cycles
            NFock= 14  Conv=0.37D-08     -V/T= 2.0048

 **********************************************************************

            Population analysis using the SCF Density.

 **********************************************************************

 Orbital symmetries:
       Occupied  (A) (A) (A) (A) (A) (A) (A) (A) (A) (A) (A) (A)
                 (A) (A) (A) (A) (A) (A) (A) (A) (A) (A) (A) (A)
                 (A) (A) (A) (A) (A) (A) (A) (A) (A) (A) (A) (A)
                 (A) (A) (A) (A) (A) (A) (A) (A) (A) (A) (A) (A)
                 (A) (A) (A) (A) (A) (A) (A) (A) (A) (A) (A) (A)
                 (A) (A) (A) (A) (A) (A) (A) (A) (A) (A) (A) (A)
                 (A) (A) (A) (A) (A)
       Virtual   (A) (A) (A) (A) (A) (A) (A) (A) (A) (A) (A) (A)
                 (A) (A) (A) (A) (A) (A) (A) (A) (A) (A) (A) (A)
                 (A) (A) (A) (A) (A) (A) (A) (A) (A) (A) (A) (A)
                 (A) (A) (A) (A) (A) (A) (A) (A) (A) (A) (A) (A)
                 (A) (A) (A) (A) (A) (A) (A) (A) (A) (A) (A) (A)
                 (A) (A) (A) (A) (A) (A) (A) (A) (A) (A) (A) (A)
                 (A) (A) (A) (A) (A) (A) (A) (A) (A) (A) (A) (A)
                 (A) (A) (A) (A) (A) (A) (A) (A) (A) (A) (A) (A)
                 (A) (A) (A) (A) (A) (A) (A) (A) (A) (A) (A) (A)
                 (A) (A) (A) (A) (A) (A) (A) (A) (A) (A) (A) (A)
                 (A) (A) (A) (A) (A) (A) (A) (A) (A) (A) (A) (A)
                 (A) (A) (A) (A) (A) (A) (A) (A) (A) (A) (A) (A)
                 (A) (A) (A) (A) (A) (A) (A) (A) (A) (A) (A) (A)
                 (A) (A) (A) (A) (A) (A) (A) (A) (A) (A) (A) (A)
                 (A) (A) (A) (A) (A) (A) (A) (A) (A) (A) (A) (A)
                 (A) (A) (A) (A) (A) (A) (A) (A) (A) (A) (A) (A)
                 (A) (A) (A) (A) (A) (A) (A) (A) (A) (A) (A) (A)
                 (A) (A) (A) (A) (A) (A) (A) (A) (A) (A) (A) (A)
                 (A) (A) (A) (A) (A) (A) (A) (A) (A) (A) (A) (A)
                 (A) (A) (A) (A) (A) (A) (A) (A) (A) (A) (A) (A)
                 (A) (A) (A) (A) (A) (A) (A) (A) (A) (A) (A) (A)
                 (A) (A) (A) (A) (A) (A) (A) (A) (A) (A) (A) (A)
                 (A) (A) (A) (A) (A) (A) (A) (A) (A) (A) (A) (A)
                 (A) (A) (A) (A) (A) (A) (A) (A) (A) (A) (A) (A)
                 (A) (A) (A) (A) (A) (A) (A) (A) (A) (A) (A) (A)
                 (A) (A) (A) (A) (A) (A) (A) (A) (A) (A) (A) (A)
                 (A) (A) (A) (A) (A) (A) (A) (A) (A) (A) (A) (A)
                 (A) (A) (A) (A) (A) (A) (A) (A) (A) (A) (A) (A)
                 (A) (A) (A) (A) (A) (A) (A) (A) (A) (A) (A) (A)
                 (A) (A) (A) (A) (A) (A) (A) (A) (A) (A) (A) (A)
                 (A) (A) (A) (A) (A) (A) (A) (A) (A) (A) (A) (A)
                 (A) (A) (A) (A) (A) (A) (A) (A) (A) (A) (A) (A)
                 (A) (A) (A) (A) (A) (A) (A) (A) (A) (A) (A) (A)
                 (A) (A) (A) (A) (A) (A) (A) (A) (A) (A) (A) (A)
                 (A) (A) (A) (A) (A) (A) (A) (A) (A) (A) (A) (A)
                 (A) (A) (A) (A) (A) (A) (A) (A) (A) (A) (A) (A)
                 (A) (A) (A) (A) (A) (A) (A) (A) (A) (A) (A) (A)
                 (A) (A) (A) (A) (A) (A) (A) (A) (A) (A) (A) (A)
                 (A) (A) (A) (A) (A) (A) (A) (A) (A) (A) (A) (A)
                 (A) (A) (A) (A) (A) (A) (A) (A) (A) (A) (A) (A)
                 (A) (A) (A) (A) (A) (A) (A) (A) (A) (A) (A) (A)
                 (A) (A) (A) (A) (A) (A) (A) (A) (A) (A) (A) (A)
                 (A) (A) (A) (A) (A) (A) (A) (A) (A) (A) (A) (A)
                 (A) (A) (A) (A) (A) (A) (A) (A) (A) (A) (A) (A)
                 (A) (A) (A) (A) (A) (A) (A) (A) (A) (A) (A) (A)
                 (A) (A) (A) (A) (A) (A) (A) (A) (A) (A) (A) (A)
                 (A) (A) (A) (A) (A) (A) (A) (A) (A) (A) (A) (A)
                 (A) (A) (A) (A) (A) (A) (A) (A) (A) (A) (A) (A)
                 (A) (A) (A) (A) (A) (A) (A) (A) (A) (A) (A) (A)
                 (A) (A) (A) (A) (A) (A) (A) (A) (A) (A) (A) (A)
                 (A) (A) (A) (A) (A) (A) (A) (A) (A) (A) (A) (A)
                 (A) (A) (A) (A) (A) (A) (A) (A) (A) (A) (A) (A)
                 (A) (A) (A) (A) (A) (A) (A) (A) (A) (A) (A) (A)
                 (A) (A) (A) (A) (A) (A) (A) (A) (A) (A) (A) (A)
                 (A) (A) (A) (A) (A) (A) (A) (A) (A) (A) (A) (A)
                 (A) (A) (A) (A) (A) (A) (A) (A) (A) (A) (A) (A)
                 (A) (A) (A) (A) (A) (A) (A) (A) (A) (A) (A)
 The electronic state is 1-A.
 Alpha  occ. eigenvalues --  -25.28170 -25.28164 -25.27826 -10.79798 -10.57587
 Alpha  occ. eigenvalues --  -10.57152 -10.56522 -10.56522 -10.56514 -10.56435
 Alpha  occ. eigenvalues --  -10.56180 -10.55996 -10.55977 -10.55310 -10.55263
 Alpha  occ. eigenvalues --  -10.55173 -10.55094 -10.54958 -10.54936 -10.54851
 Alpha  occ. eigenvalues --  -10.54832 -10.54674  -1.47014  -1.37882  -1.37746
 Alpha  occ. eigenvalues --   -0.99427  -0.97952  -0.96018  -0.90720  -0.87988
 Alpha  occ. eigenvalues --   -0.86363  -0.85419  -0.84776  -0.82443  -0.80290
 Alpha  occ. eigenvalues --   -0.73603  -0.72688  -0.71195  -0.70313  -0.69609
 Alpha  occ. eigenvalues --   -0.68811  -0.67825  -0.66614  -0.65694  -0.61915
 Alpha  occ. eigenvalues --   -0.58427  -0.57918  -0.57758  -0.56739  -0.55403
 Alpha  occ. eigenvalues --   -0.54426  -0.54044  -0.53857  -0.53621  -0.52656
 Alpha  occ. eigenvalues --   -0.51745  -0.51301  -0.50984  -0.50329  -0.49629
 Alpha  occ. eigenvalues --   -0.49264  -0.48273  -0.46543  -0.45158  -0.43868
 Alpha  occ. eigenvalues --   -0.43811  -0.43280  -0.42166  -0.41590  -0.40118
 Alpha  occ. eigenvalues --   -0.39936  -0.34981  -0.33645  -0.32725  -0.31559
 Alpha  occ. eigenvalues --   -0.30113  -0.28493
 Alpha virt. eigenvalues --   -0.02215  -0.01171   0.00214   0.01301   0.02488
 Alpha virt. eigenvalues --    0.04875   0.06967   0.08294   0.08324   0.09236
 Alpha virt. eigenvalues --    0.10213   0.11235   0.11790   0.12665   0.12799
 Alpha virt. eigenvalues --    0.13310   0.13789   0.14809   0.15177   0.15454
 Alpha virt. eigenvalues --    0.16339   0.16909   0.17497   0.18033   0.18518
 Alpha virt. eigenvalues --    0.18977   0.19560   0.20370   0.21047   0.21957
 Alpha virt. eigenvalues --    0.22324   0.22627   0.22881   0.23537   0.23719
 Alpha virt. eigenvalues --    0.24376   0.25009   0.25223   0.25390   0.25722
 Alpha virt. eigenvalues --    0.26220   0.26510   0.27545   0.27748   0.28226
 Alpha virt. eigenvalues --    0.28561   0.29100   0.29272   0.29698   0.29897
 Alpha virt. eigenvalues --    0.30489   0.31067   0.31682   0.32000   0.32638
 Alpha virt. eigenvalues --    0.33090   0.33420   0.34001   0.34267   0.34947
 Alpha virt. eigenvalues --    0.35861   0.36012   0.36556   0.37151   0.37568
 Alpha virt. eigenvalues --    0.37669   0.38192   0.38877   0.39055   0.39336
 Alpha virt. eigenvalues --    0.40126   0.40413   0.40593   0.41042   0.41676
 Alpha virt. eigenvalues --    0.42053   0.42459   0.43240   0.43555   0.44015
 Alpha virt. eigenvalues --    0.44445   0.44792   0.45164   0.45692   0.45718
 Alpha virt. eigenvalues --    0.46616   0.46784   0.47611   0.48008   0.48489
 Alpha virt. eigenvalues --    0.49001   0.49721   0.50036   0.51645   0.52157
 Alpha virt. eigenvalues --    0.52489   0.53092   0.53450   0.53678   0.54658
 Alpha virt. eigenvalues --    0.55357   0.55586   0.56452   0.56942   0.57429
 Alpha virt. eigenvalues --    0.58034   0.58394   0.59141   0.59946   0.60516
 Alpha virt. eigenvalues --    0.61450   0.62415   0.63235   0.63437   0.64717
 Alpha virt. eigenvalues --    0.65911   0.66379   0.67070   0.67782   0.68199
 Alpha virt. eigenvalues --    0.69075   0.70151   0.71084   0.71133   0.71907
 Alpha virt. eigenvalues --    0.72525   0.72856   0.73260   0.73622   0.74373
 Alpha virt. eigenvalues --    0.74415   0.75199   0.75386   0.75531   0.75907
 Alpha virt. eigenvalues --    0.76406   0.77000   0.77381   0.77697   0.78334
 Alpha virt. eigenvalues --    0.78785   0.79814   0.80972   0.81691   0.82641
 Alpha virt. eigenvalues --    0.82736   0.82930   0.83201   0.84169   0.84956
 Alpha virt. eigenvalues --    0.85391   0.86045   0.86821   0.87670   0.88240
 Alpha virt. eigenvalues --    0.88907   0.89407   0.90456   0.91713   0.91951
 Alpha virt. eigenvalues --    0.92011   0.92862   0.93420   0.94054   0.94319
 Alpha virt. eigenvalues --    0.95269   0.95884   0.96421   0.97131   0.98338
 Alpha virt. eigenvalues --    0.98952   0.99074   1.01251   1.01628   1.02854
 Alpha virt. eigenvalues --    1.03120   1.03848   1.04406   1.04474   1.05399
 Alpha virt. eigenvalues --    1.07045   1.07284   1.07740   1.09376   1.10793
 Alpha virt. eigenvalues --    1.11327   1.11967   1.13188   1.15587   1.16349
 Alpha virt. eigenvalues --    1.16733   1.17533   1.17729   1.18621   1.19433
 Alpha virt. eigenvalues --    1.21260   1.21888   1.22127   1.23477   1.24367
 Alpha virt. eigenvalues --    1.24726   1.25035   1.25838   1.26503   1.27086
 Alpha virt. eigenvalues --    1.28931   1.29574   1.30096   1.30236   1.30989
 Alpha virt. eigenvalues --    1.31617   1.32322   1.33354   1.33675   1.34419
 Alpha virt. eigenvalues --    1.34824   1.36017   1.36734   1.37042   1.37974
 Alpha virt. eigenvalues --    1.39867   1.41123   1.41419   1.41814   1.43648
 Alpha virt. eigenvalues --    1.45230   1.46233   1.46550   1.47271   1.47874
 Alpha virt. eigenvalues --    1.48829   1.49597   1.50174   1.51056   1.52227
 Alpha virt. eigenvalues --    1.52862   1.54316   1.55107   1.55585   1.56343
 Alpha virt. eigenvalues --    1.57935   1.58135   1.58427   1.59075   1.59794
 Alpha virt. eigenvalues --    1.60435   1.61075   1.61653   1.62047   1.63780
 Alpha virt. eigenvalues --    1.65119   1.66131   1.66732   1.67311   1.67509
 Alpha virt. eigenvalues --    1.68797   1.69728   1.71275   1.72066   1.72796
 Alpha virt. eigenvalues --    1.73000   1.73477   1.74143   1.74923   1.75885
 Alpha virt. eigenvalues --    1.76598   1.76866   1.77319   1.78518   1.79237
 Alpha virt. eigenvalues --    1.79742   1.81052   1.82674   1.84501   1.86912
 Alpha virt. eigenvalues --    1.88063   1.89182   1.89494   1.89758   1.90302
 Alpha virt. eigenvalues --    1.91200   1.91811   1.93644   1.94957   1.95428
 Alpha virt. eigenvalues --    1.95702   1.97625   1.99639   2.00278   2.01190
 Alpha virt. eigenvalues --    2.01848   2.02549   2.03700   2.05010   2.06043
 Alpha virt. eigenvalues --    2.06357   2.06566   2.07468   2.08518   2.09395
 Alpha virt. eigenvalues --    2.10106   2.10699   2.11103   2.14288   2.16004
 Alpha virt. eigenvalues --    2.16404   2.17065   2.17150   2.17982   2.19020
 Alpha virt. eigenvalues --    2.20256   2.20961   2.22463   2.23138   2.23640
 Alpha virt. eigenvalues --    2.24139   2.25844   2.26252   2.26817   2.27474
 Alpha virt. eigenvalues --    2.28463   2.28929   2.32548   2.32753   2.34602
 Alpha virt. eigenvalues --    2.35270   2.36932   2.37535   2.38607   2.39872
 Alpha virt. eigenvalues --    2.40570   2.41823   2.43160   2.44494   2.44598
 Alpha virt. eigenvalues --    2.46844   2.47385   2.48636   2.49162   2.50547
 Alpha virt. eigenvalues --    2.51465   2.52193   2.52813   2.53809   2.54977
 Alpha virt. eigenvalues --    2.55811   2.56401   2.58999   2.59282   2.59629
 Alpha virt. eigenvalues --    2.59976   2.60857   2.61648   2.62695   2.62967
 Alpha virt. eigenvalues --    2.64412   2.65242   2.65521   2.65733   2.66172
 Alpha virt. eigenvalues --    2.66877   2.67075   2.67954   2.68669   2.68754
 Alpha virt. eigenvalues --    2.69368   2.70078   2.70646   2.70768   2.72014
 Alpha virt. eigenvalues --    2.72434   2.73118   2.73576   2.74380   2.75146
 Alpha virt. eigenvalues --    2.75593   2.76126   2.76538   2.77846   2.78344
 Alpha virt. eigenvalues --    2.78586   2.79031   2.81327   2.81658   2.82109
 Alpha virt. eigenvalues --    2.82287   2.82836   2.82944   2.83899   2.84488
 Alpha virt. eigenvalues --    2.85031   2.85315   2.85734   2.86247   2.87199
 Alpha virt. eigenvalues --    2.87492   2.88502   2.89086   2.89766   2.90579
 Alpha virt. eigenvalues --    2.90798   2.91727   2.92551   2.93142   2.95283
 Alpha virt. eigenvalues --    2.97149   2.97395   2.98276   2.99810   3.00489
 Alpha virt. eigenvalues --    3.01183   3.01476   3.02219   3.03043   3.04563
 Alpha virt. eigenvalues --    3.05051   3.05214   3.06511   3.06844   3.07799
 Alpha virt. eigenvalues --    3.07920   3.09079   3.09848   3.10854   3.11353
 Alpha virt. eigenvalues --    3.11697   3.12152   3.13288   3.13450   3.14264
 Alpha virt. eigenvalues --    3.14643   3.15281   3.15444   3.16618   3.17698
 Alpha virt. eigenvalues --    3.18567   3.18688   3.19072   3.20093   3.20799
 Alpha virt. eigenvalues --    3.21108   3.21714   3.21833   3.22590   3.24191
 Alpha virt. eigenvalues --    3.24352   3.25409   3.25757   3.27367   3.27698
 Alpha virt. eigenvalues --    3.28355   3.28589   3.29409   3.29581   3.30260
 Alpha virt. eigenvalues --    3.31070   3.31209   3.31552   3.31882   3.32578
 Alpha virt. eigenvalues --    3.33756   3.34386   3.34519   3.35587   3.36249
 Alpha virt. eigenvalues --    3.36696   3.37377   3.38475   3.38617   3.39463
 Alpha virt. eigenvalues --    3.39673   3.40544   3.41347   3.41540   3.42749
 Alpha virt. eigenvalues --    3.43026   3.43320   3.44047   3.44480   3.44620
 Alpha virt. eigenvalues --    3.45151   3.46431   3.46887   3.47935   3.48255
 Alpha virt. eigenvalues --    3.49181   3.49897   3.50179   3.51403   3.51898
 Alpha virt. eigenvalues --    3.53337   3.53764   3.54520   3.54920   3.55537
 Alpha virt. eigenvalues --    3.56314   3.57637   3.58605   3.59435   3.60416
 Alpha virt. eigenvalues --    3.62098   3.62974   3.64089   3.64794   3.65867
 Alpha virt. eigenvalues --    3.67086   3.68427   3.68732   3.72721   3.74151
 Alpha virt. eigenvalues --    3.75005   3.75801   3.76415   3.77640   3.78886
 Alpha virt. eigenvalues --    3.79658   3.80964   3.81769   3.84123   3.85163
 Alpha virt. eigenvalues --    3.85709   3.88420   3.88833   3.91681   3.93355
 Alpha virt. eigenvalues --    3.93817   3.94088   3.95457   3.95789   3.96814
 Alpha virt. eigenvalues --    3.98517   3.99551   4.00155   4.00342   4.00767
 Alpha virt. eigenvalues --    4.01887   4.02534   4.03132   4.04765   4.06628
 Alpha virt. eigenvalues --    4.07000   4.08004   4.09020   4.10130   4.10993
 Alpha virt. eigenvalues --    4.11254   4.11929   4.14343   4.14960   4.15524
 Alpha virt. eigenvalues --    4.16010   4.17076   4.17487   4.18118   4.18506
 Alpha virt. eigenvalues --    4.19088   4.19278   4.20084   4.20654   4.21201
 Alpha virt. eigenvalues --    4.21979   4.22811   4.22941   4.23514   4.25427
 Alpha virt. eigenvalues --    4.27425   4.28239   4.29291   4.31622   4.34544
 Alpha virt. eigenvalues --    4.35647   4.36084   4.38882   4.40005   4.40598
 Alpha virt. eigenvalues --    4.44918   4.46279   4.50379   4.51578   4.54855
 Alpha virt. eigenvalues --    4.56612   4.58828   4.59613   4.61650   4.62199
 Alpha virt. eigenvalues --    4.63472   4.64103   4.65681   4.66511   4.67987
 Alpha virt. eigenvalues --    4.71504   4.76331   4.78718   4.83717   4.85262
 Alpha virt. eigenvalues --    4.86268   4.87618   4.88129   4.88642   4.93003
 Alpha virt. eigenvalues --    4.93804   4.95147   4.97882   5.01771   5.10854
 Alpha virt. eigenvalues --    5.12273   5.16821   5.19622   5.20668   5.23141
 Alpha virt. eigenvalues --    5.23984   5.25507   5.30829   5.35353   5.36053
 Alpha virt. eigenvalues --    5.36724   5.39878   5.41350   5.46769   5.48015
 Alpha virt. eigenvalues --    5.51005   5.56447   5.57561   5.66006   5.75665
 Alpha virt. eigenvalues --    6.83069   6.87965   6.88133   6.88452   6.88566
 Alpha virt. eigenvalues --    6.89212   6.89486   6.89611   6.90916   6.99345
 Alpha virt. eigenvalues --    7.02080   7.02334   7.07583   7.08303   7.15311
 Alpha virt. eigenvalues --    7.36601   7.39396   7.40263   7.55881   7.60073
 Alpha virt. eigenvalues --    7.60281   8.29983   8.32081   8.33266   8.46639
 Alpha virt. eigenvalues --    8.47127   8.56073   8.70918   8.77754   8.78594
 Alpha virt. eigenvalues --    8.86802   8.92962   8.98189   8.99339   9.08424
 Alpha virt. eigenvalues --    9.10742  22.04457  22.31645  22.43292  22.67676
 Alpha virt. eigenvalues --   22.70845  22.72692  22.76609  22.78538  22.81849
 Alpha virt. eigenvalues --   22.82971  22.86149  22.90642  22.95773  22.96733
 Alpha virt. eigenvalues --   23.04314  23.11042  23.27871  23.40962  23.49008
 Alpha virt. eigenvalues --   57.37838  57.38775  57.48148
          Condensed to atoms (all electrons):
               1          2          3          4          5          6
     1  C    4.997986   0.500131  -0.055615  -0.039792  -0.059148   0.507847
     2  C    0.500131   5.014102   0.504745  -0.042234  -0.048631  -0.025468
     3  C   -0.055615   0.504745   4.902663   0.522180  -0.036362  -0.048747
     4  C   -0.039792  -0.042234   0.522180   4.875235   0.523552  -0.043292
     5  C   -0.059148  -0.048631  -0.036362   0.523552   4.898115   0.507471
     6  C    0.507847  -0.025468  -0.048747  -0.043292   0.507471   5.011857
     7  H    0.004562  -0.030199   0.407285  -0.030525   0.003367   0.000113
     8  H    0.004782   0.000023   0.003599  -0.031107   0.408289  -0.031177
     9  H   -0.037947   0.394121  -0.020598   0.002375  -0.000093   0.004719
    10  H   -0.038557   0.005247  -0.000204   0.002542  -0.019843   0.394502
    11  C    0.004020  -0.000317  -0.000064   0.000013  -0.000023  -0.000351
    12  C    0.008463  -0.000751   0.000112  -0.000032  -0.000023   0.002165
    13  C   -0.076920   0.009040  -0.001012   0.000184   0.001534  -0.004002
    14  C    0.259673  -0.078559   0.007494  -0.004324   0.008368  -0.078753
    15  C   -0.089048  -0.001255   0.001856  -0.000142  -0.000431   0.007234
    16  C    0.003293   0.003798  -0.000066  -0.000063   0.000151   0.000084
    17  H   -0.003159   0.000303  -0.000104  -0.000082   0.000798   0.003002
    18  H    0.006304   0.000400   0.000298  -0.000017  -0.000128  -0.000091
    19  H    0.000856   0.004427  -0.034824   0.410493  -0.034901   0.004445
    20  H   -0.000173   0.000033   0.000000  -0.000000  -0.000000   0.000033
    21  H    0.000178  -0.000011  -0.000000   0.000000  -0.000000  -0.000007
    22  C    0.000001   0.000002  -0.000000   0.000000  -0.000000   0.000000
    23  C   -0.000027  -0.000028   0.000001  -0.000000  -0.000000   0.000000
    24  C    0.000946  -0.000343  -0.000026   0.000001  -0.000001   0.000023
    25  C   -0.006049   0.000909  -0.000012  -0.000002   0.000003   0.000027
    26  C    0.000054   0.000016   0.000001  -0.000000   0.000000  -0.000002
    27  C   -0.000004  -0.000000   0.000000  -0.000000  -0.000000  -0.000000
    28  H    0.000001  -0.000000  -0.000000  -0.000000   0.000000  -0.000000
    29  H    0.000260   0.000089  -0.000012   0.000000  -0.000000   0.000006
    30  H    0.000009   0.000001   0.000000  -0.000000   0.000000   0.000000
    31  H    0.000000  -0.000000  -0.000000  -0.000000   0.000000  -0.000000
    32  C   -0.000000   0.000000  -0.000000   0.000000  -0.000000   0.000000
    33  F    0.000000  -0.000000  -0.000000   0.000000  -0.000000  -0.000000
    34  F   -0.000000   0.000000  -0.000000   0.000000   0.000000  -0.000000
    35  F    0.000000  -0.000000  -0.000000   0.000000  -0.000000   0.000000
               7          8          9         10         11         12
     1  C    0.004562   0.004782  -0.037947  -0.038557   0.004020   0.008463
     2  C   -0.030199   0.000023   0.394121   0.005247  -0.000317  -0.000751
     3  C    0.407285   0.003599  -0.020598  -0.000204  -0.000064   0.000112
     4  C   -0.030525  -0.031107   0.002375   0.002542   0.000013  -0.000032
     5  C    0.003367   0.408289  -0.000093  -0.019843  -0.000023  -0.000023
     6  C    0.000113  -0.031177   0.004719   0.394502  -0.000351   0.002165
     7  H    0.507126  -0.000276  -0.003408   0.000065  -0.000001   0.000000
     8  H   -0.000276   0.507292   0.000065  -0.003403  -0.000001   0.000002
     9  H   -0.003408   0.000065   0.491109  -0.000236  -0.000191  -0.000027
    10  H    0.000065  -0.003403  -0.000236   0.489123  -0.000179   0.000877
    11  C   -0.000001  -0.000001  -0.000191  -0.000179   5.024419   0.488503
    12  C    0.000000   0.000002  -0.000027   0.000877   0.488503   4.938311
    13  C    0.000027   0.000020   0.000067   0.001935  -0.029477   0.489752
    14  C   -0.000032  -0.000051   0.004261   0.005104  -0.042429  -0.042926
    15  C    0.000052   0.000029   0.003352   0.000258  -0.037010  -0.065970
    16  C    0.000004   0.000002   0.001567   0.000053   0.507391  -0.039288
    17  H    0.000002   0.000054   0.000042  -0.001896   0.001961  -0.021434
    18  H    0.000044   0.000001  -0.002898   0.000033   0.002486   0.000276
    19  H   -0.003930  -0.003963  -0.000290  -0.000284   0.000000  -0.000000
    20  H    0.000000   0.000000   0.000002   0.000057  -0.029721   0.407072
    21  H   -0.000000  -0.000000  -0.000001  -0.000001   0.400646  -0.027254
    22  C    0.000000   0.000000   0.000001  -0.000000   0.000326   0.000001
    23  C   -0.000000  -0.000000  -0.000014   0.000000  -0.001934   0.000080
    24  C   -0.000001   0.000000   0.000192   0.000001   0.008482  -0.001154
    25  C    0.000001   0.000000   0.000344   0.000008  -0.089625   0.011833
    26  C   -0.000000  -0.000000   0.000010   0.000000  -0.000925   0.002184
    27  C    0.000000   0.000000  -0.000001  -0.000000   0.002472  -0.000112
    28  H    0.000000   0.000000  -0.000001   0.000000   0.000030   0.000000
    29  H   -0.000001   0.000000   0.000459  -0.000000   0.000651  -0.000054
    30  H    0.000000   0.000000  -0.000000  -0.000000   0.001046   0.000434
    31  H    0.000000   0.000000   0.000000   0.000000  -0.000014  -0.000000
    32  C    0.000000   0.000000   0.000000   0.000000   0.000003   0.000000
    33  F   -0.000000   0.000000   0.000000  -0.000000   0.000000   0.000000
    34  F   -0.000000  -0.000000   0.000000   0.000000   0.000000  -0.000000
    35  F   -0.000000  -0.000000   0.000000   0.000000  -0.000000   0.000000
              13         14         15         16         17         18
     1  C   -0.076920   0.259673  -0.089048   0.003293  -0.003159   0.006304
     2  C    0.009040  -0.078559  -0.001255   0.003798   0.000303   0.000400
     3  C   -0.001012   0.007494   0.001856  -0.000066  -0.000104   0.000298
     4  C    0.000184  -0.004324  -0.000142  -0.000063  -0.000082  -0.000017
     5  C    0.001534   0.008368  -0.000431   0.000151   0.000798  -0.000128
     6  C   -0.004002  -0.078753   0.007234   0.000084   0.003002  -0.000091
     7  H    0.000027  -0.000032   0.000052   0.000004   0.000002   0.000044
     8  H    0.000020  -0.000051   0.000029   0.000002   0.000054   0.000001
     9  H    0.000067   0.004261   0.003352   0.001567   0.000042  -0.002898
    10  H    0.001935   0.005104   0.000258   0.000053  -0.001896   0.000033
    11  C   -0.029477  -0.042429  -0.037010   0.507391   0.001961   0.002486
    12  C    0.489752  -0.042926  -0.065970  -0.039288  -0.021434   0.000276
    13  C    5.011444   0.509252  -0.031380  -0.048101   0.394867   0.002631
    14  C    0.509252   4.995955   0.429863  -0.045189  -0.035703  -0.014998
    15  C   -0.031380   0.429863   5.360485   0.425270   0.009021   0.357921
    16  C   -0.048101  -0.045189   0.425270   5.020333   0.000573  -0.010980
    17  H    0.394867  -0.035703   0.009021   0.000573   0.491847  -0.000220
    18  H    0.002631  -0.014998   0.357921  -0.010980  -0.000220   0.449040
    19  H   -0.000004   0.000100  -0.000012  -0.000000  -0.000000   0.000001
    20  H   -0.029379   0.004050  -0.000009   0.004095  -0.003090   0.000049
    21  H    0.003470  -0.000364   0.011025  -0.039231  -0.000266  -0.000263
    22  C    0.000003  -0.000010   0.000020  -0.003453  -0.000000   0.000038
    23  C   -0.000052  -0.000129   0.002227   0.006515   0.000000  -0.000178
    24  C   -0.000151   0.003769   0.007035  -0.082886  -0.000013  -0.000845
    25  C    0.001291   0.007094  -0.109188   0.268612   0.000168   0.006854
    26  C   -0.000421   0.000259   0.005739  -0.077511  -0.000009   0.000479
    27  C    0.000014   0.000086  -0.001167   0.005146   0.000000  -0.000179
    28  H   -0.000001   0.000002   0.000013   0.000373  -0.000000   0.000034
    29  H   -0.000147   0.000799   0.001245   0.003462  -0.000001  -0.002411
    30  H   -0.000134   0.000031   0.000664   0.004051  -0.000001   0.000053
    31  H   -0.000001   0.000002   0.000025   0.000365  -0.000000   0.000001
    32  C    0.000000  -0.000000   0.000004  -0.000229   0.000000   0.000001
    33  F    0.000000  -0.000000   0.000000   0.000001   0.000000   0.000000
    34  F    0.000000   0.000000  -0.000000  -0.000010   0.000000   0.000000
    35  F    0.000000  -0.000000  -0.000000   0.000003   0.000000  -0.000000
              19         20         21         22         23         24
     1  C    0.000856  -0.000173   0.000178   0.000001  -0.000027   0.000946
     2  C    0.004427   0.000033  -0.000011   0.000002  -0.000028  -0.000343
     3  C   -0.034824   0.000000  -0.000000  -0.000000   0.000001  -0.000026
     4  C    0.410493  -0.000000   0.000000   0.000000  -0.000000   0.000001
     5  C   -0.034901  -0.000000  -0.000000  -0.000000  -0.000000  -0.000001
     6  C    0.004445   0.000033  -0.000007   0.000000   0.000000   0.000023
     7  H   -0.003930   0.000000  -0.000000   0.000000  -0.000000  -0.000001
     8  H   -0.003963   0.000000  -0.000000   0.000000  -0.000000   0.000000
     9  H   -0.000290   0.000002  -0.000001   0.000001  -0.000014   0.000192
    10  H   -0.000284   0.000057  -0.000001  -0.000000   0.000000   0.000001
    11  C    0.000000  -0.029721   0.400646   0.000326  -0.001934   0.008482
    12  C   -0.000000   0.407072  -0.027254   0.000001   0.000080  -0.001154
    13  C   -0.000004  -0.029379   0.003470   0.000003  -0.000052  -0.000151
    14  C    0.000100   0.004050  -0.000364  -0.000010  -0.000129   0.003769
    15  C   -0.000012  -0.000009   0.011025   0.000020   0.002227   0.007035
    16  C   -0.000000   0.004095  -0.039231  -0.003453   0.006515  -0.082886
    17  H   -0.000000  -0.003090  -0.000266  -0.000000   0.000000  -0.000013
    18  H    0.000001   0.000049  -0.000263   0.000038  -0.000178  -0.000845
    19  H    0.514540  -0.000000   0.000000  -0.000000   0.000000   0.000000
    20  H   -0.000000   0.503305  -0.003257   0.000000   0.000000   0.000034
    21  H    0.000000  -0.003257   0.489579  -0.000008  -0.000252   0.001432
    22  C   -0.000000   0.000000  -0.000008   5.130718   0.437277  -0.032221
    23  C    0.000000   0.000000  -0.000252   0.437277   5.032391   0.459153
    24  C    0.000000   0.000034   0.001432  -0.032221   0.459153   5.056449
    25  C   -0.000000  -0.000133  -0.002663  -0.045681  -0.039427   0.485311
    26  C   -0.000000   0.000019   0.001439  -0.037297  -0.030319  -0.050593
    27  C    0.000000  -0.000002   0.000413   0.440104  -0.057576  -0.032947
    28  H    0.000000   0.000000   0.000002  -0.027333   0.401344  -0.027353
    29  H   -0.000000   0.000002   0.000069   0.003041  -0.025038   0.398760
    30  H   -0.000000   0.000044  -0.001506   0.003336  -0.000460   0.006412
    31  H    0.000000   0.000000   0.000039  -0.027610   0.007304  -0.000754
    32  C   -0.000000  -0.000000   0.000000   0.456627  -0.041419   0.003966
    33  F    0.000000  -0.000000   0.000000  -0.083068   0.004837  -0.000207
    34  F   -0.000000  -0.000000  -0.000000  -0.089370   0.002913  -0.000137
    35  F    0.000000   0.000000   0.000000  -0.082879   0.009806   0.001512
              25         26         27         28         29         30
     1  C   -0.006049   0.000054  -0.000004   0.000001   0.000260   0.000009
     2  C    0.000909   0.000016  -0.000000  -0.000000   0.000089   0.000001
     3  C   -0.000012   0.000001   0.000000  -0.000000  -0.000012   0.000000
     4  C   -0.000002  -0.000000  -0.000000  -0.000000   0.000000  -0.000000
     5  C    0.000003   0.000000  -0.000000   0.000000  -0.000000   0.000000
     6  C    0.000027  -0.000002  -0.000000  -0.000000   0.000006   0.000000
     7  H    0.000001  -0.000000   0.000000   0.000000  -0.000001   0.000000
     8  H    0.000000  -0.000000   0.000000   0.000000   0.000000   0.000000
     9  H    0.000344   0.000010  -0.000001  -0.000001   0.000459  -0.000000
    10  H    0.000008   0.000000  -0.000000   0.000000  -0.000000  -0.000000
    11  C   -0.089625  -0.000925   0.002472   0.000030   0.000651   0.001046
    12  C    0.011833   0.002184  -0.000112   0.000000  -0.000054   0.000434
    13  C    0.001291  -0.000421   0.000014  -0.000001  -0.000147  -0.000134
    14  C    0.007094   0.000259   0.000086   0.000002   0.000799   0.000031
    15  C   -0.109188   0.005739  -0.001167   0.000013   0.001245   0.000664
    16  C    0.268612  -0.077511   0.005146   0.000373   0.003462   0.004051
    17  H    0.000168  -0.000009   0.000000  -0.000000  -0.000001  -0.000001
    18  H    0.006854   0.000479  -0.000179   0.000034  -0.002411   0.000053
    19  H   -0.000000  -0.000000   0.000000   0.000000  -0.000000  -0.000000
    20  H   -0.000133   0.000019  -0.000002   0.000000   0.000002   0.000044
    21  H   -0.002663   0.001439   0.000413   0.000002   0.000069  -0.001506
    22  C   -0.045681  -0.037297   0.440104  -0.027333   0.003041   0.003336
    23  C   -0.039427  -0.030319  -0.057576   0.401344  -0.025038  -0.000460
    24  C    0.485311  -0.050593  -0.032947  -0.027353   0.398760   0.006412
    25  C    5.036614   0.499175  -0.042246   0.004003  -0.034493  -0.035207
    26  C    0.499175   5.044397   0.463613  -0.000644   0.005505   0.398516
    27  C   -0.042246   0.463613   5.028696   0.007134  -0.000230  -0.024673
    28  H    0.004003  -0.000644   0.007134   0.479090  -0.002978   0.000046
    29  H   -0.034493   0.005505  -0.000230  -0.002978   0.475385  -0.000224
    30  H   -0.035207   0.398516  -0.024673   0.000046  -0.000224   0.475079
    31  H    0.004258  -0.028943   0.402896  -0.000162   0.000047  -0.003040
    32  C   -0.001259   0.004456  -0.042944  -0.006219  -0.000062  -0.000065
    33  F   -0.000064   0.001992   0.009954   0.000209   0.000003  -0.000014
    34  F   -0.000062  -0.000526   0.003349   0.000268   0.000003   0.000001
    35  F   -0.000064  -0.000169   0.005057   0.006123  -0.000018   0.000003
              31         32         33         34         35
     1  C    0.000000  -0.000000   0.000000  -0.000000   0.000000
     2  C   -0.000000   0.000000  -0.000000   0.000000  -0.000000
     3  C   -0.000000  -0.000000  -0.000000  -0.000000  -0.000000
     4  C   -0.000000   0.000000   0.000000   0.000000   0.000000
     5  C    0.000000  -0.000000  -0.000000   0.000000  -0.000000
     6  C   -0.000000   0.000000  -0.000000  -0.000000   0.000000
     7  H    0.000000   0.000000  -0.000000  -0.000000  -0.000000
     8  H    0.000000   0.000000   0.000000  -0.000000  -0.000000
     9  H    0.000000   0.000000   0.000000   0.000000   0.000000
    10  H    0.000000   0.000000  -0.000000   0.000000   0.000000
    11  C   -0.000014   0.000003   0.000000   0.000000  -0.000000
    12  C   -0.000000   0.000000   0.000000  -0.000000   0.000000
    13  C   -0.000001   0.000000   0.000000   0.000000   0.000000
    14  C    0.000002  -0.000000  -0.000000   0.000000  -0.000000
    15  C    0.000025   0.000004   0.000000  -0.000000  -0.000000
    16  C    0.000365  -0.000229   0.000001  -0.000010   0.000003
    17  H   -0.000000   0.000000   0.000000   0.000000   0.000000
    18  H    0.000001   0.000001   0.000000   0.000000  -0.000000
    19  H    0.000000  -0.000000   0.000000  -0.000000   0.000000
    20  H    0.000000  -0.000000  -0.000000  -0.000000   0.000000
    21  H    0.000039   0.000000   0.000000  -0.000000   0.000000
    22  C   -0.027610   0.456627  -0.083068  -0.089370  -0.082879
    23  C    0.007304  -0.041419   0.004837   0.002913   0.009806
    24  C   -0.000754   0.003966  -0.000207  -0.000137   0.001512
    25  C    0.004258  -0.001259  -0.000064  -0.000062  -0.000064
    26  C   -0.028943   0.004456   0.001992  -0.000526  -0.000169
    27  C    0.402896  -0.042944   0.009954   0.003349   0.005057
    28  H   -0.000162  -0.006219   0.000209   0.000268   0.006123
    29  H    0.000047  -0.000062   0.000003   0.000003  -0.000018
    30  H   -0.003040  -0.000065  -0.000014   0.000001   0.000003
    31  H    0.479026  -0.006431   0.006042   0.000315   0.000202
    32  C   -0.006431   4.099475   0.335605   0.347241   0.335534
    33  F    0.006042   0.335605   8.995435  -0.047503  -0.045100
    34  F    0.000315   0.347241  -0.047503   9.001319  -0.047533
    35  F    0.000202   0.335534  -0.045100  -0.047533   8.995860
 Mulliken charges:
               1
     1  C    0.107073
     2  C   -0.209592
     3  C   -0.152586
     4  C   -0.144965
     5  C   -0.152061
     6  C   -0.211639
     7  H    0.145728
     8  H    0.145821
     9  H    0.163019
    10  H    0.164795
    11  C   -0.210190
    12  C   -0.151041
    13  C   -0.204349
    14  C    0.107303
    15  C   -0.287723
    16  C    0.091865
    17  H    0.163341
    18  H    0.206265
    19  H    0.143347
    20  H    0.146968
    21  H    0.166793
    22  C   -0.042565
    23  C   -0.166998
    24  C   -0.203846
    25  C    0.079667
    26  C   -0.200496
    27  C   -0.166854
    28  H    0.166017
    29  H    0.175883
    30  H    0.175598
    31  H    0.166431
    32  C    0.515715
    33  F   -0.178121
    34  F   -0.170268
    35  F   -0.178337
 Sum of Mulliken charges =  -0.00000
 Mulliken charges with hydrogens summed into heavy atoms:
               1
     1  C    0.107073
     2  C   -0.046573
     3  C   -0.006858
     4  C   -0.001618
     5  C   -0.006240
     6  C   -0.046844
    11  C   -0.043396
    12  C   -0.004072
    13  C   -0.041008
    14  C    0.107303
    15  C   -0.081458
    16  C    0.091865
    22  C   -0.042565
    23  C   -0.000981
    24  C   -0.027964
    25  C    0.079667
    26  C   -0.024898
    27  C   -0.000422
    32  C    0.515715
    33  F   -0.178121
    34  F   -0.170268
    35  F   -0.178337
 Electronic spatial extent (au):  <R**2>=          10653.1254
 Charge=              0.0000 electrons
 Dipole moment (field-independent basis, Debye):
    X=             -2.9377    Y=              0.8601    Z=             -0.1260  Tot=              3.0636
 Quadrupole moment (field-independent basis, Debye-Ang):
   XX=           -131.2612   YY=           -114.5260   ZZ=           -129.1444
   XY=              4.5753   XZ=             -1.9597   YZ=              5.1579
 Traceless Quadrupole moment (field-independent basis, Debye-Ang):
   XX=             -6.2840   YY=             10.4512   ZZ=             -4.1672
   XY=              4.5753   XZ=             -1.9597   YZ=              5.1579
 Octapole moment (field-independent basis, Debye-Ang**2):
  XXX=            -55.3086  YYY=             -6.7000  ZZZ=              5.9560  XYY=             12.0069
  XXY=              3.7570  XXZ=             33.4844  XZZ=             50.0948  YZZ=             -7.3038
  YYZ=             -9.1280  XYZ=              4.8470
 Hexadecapole moment (field-independent basis, Debye-Ang**3):
 XXXX=         -11490.9665 YYYY=          -1639.4033 ZZZZ=           -420.4540 XXXY=            101.0296
 XXXZ=           -202.7689 YYYX=            -64.2077 YYYZ=             11.7982 ZZZX=             18.6388
 ZZZY=             16.7119 XXYY=          -2072.8433 XXZZ=          -2037.0309 YYZZ=           -373.6660
 XXYZ=             49.4797 YYXZ=             37.6057 ZZXY=            -31.3543
 N-N= 1.582249770658D+03 E-N=-5.575331433386D+03  KE= 1.026437947919D+03
 ******************************Gaussian NBO Version 3.1******************************
             N A T U R A L   A T O M I C   O R B I T A L   A N D
          N A T U R A L   B O N D   O R B I T A L   A N A L Y S I S
 ******************************Gaussian NBO Version 3.1******************************
       /RESON  / : Allow strongly delocalized NBO set

 Analyzing the SCF density

 Job title: Structure697                                                    

 Storage needed:   1737270 in NPA,   2313936 in NBO (1048569525 available)
 GSVD:  LWork=      199158 too small for GESVD, short by      553829 words or      553829 for optimal perf.


 NATURAL POPULATIONS:  Natural atomic orbital occupancies 
                                                          
   NAO  Atom  No  lang   Type(AO)    Occupancy      Energy
 ----------------------------------------------------------
     1    C    1  S      Cor( 1S)     1.99911     -10.39805
     2    C    1  S      Val( 2S)     0.91019      -0.20754
     3    C    1  S      Ryd( 3S)     0.00078       1.56558
     4    C    1  S      Ryd( 4S)     0.00010       1.61512
     5    C    1  S      Ryd( 5S)     0.00000      21.36421
     6    C    1  px     Val( 2p)     1.04445      -0.07487
     7    C    1  px     Ryd( 3p)     0.00543       1.15498
     8    C    1  px     Ryd( 4p)     0.00044       1.69301
     9    C    1  py     Val( 2p)     1.05361      -0.07511
    10    C    1  py     Ryd( 3p)     0.00498       1.15898
    11    C    1  py     Ryd( 4p)     0.00041       1.65249
    12    C    1  pz     Val( 2p)     1.02482      -0.10679
    13    C    1  pz     Ryd( 3p)     0.00167       0.85554
    14    C    1  pz     Ryd( 4p)     0.00023       1.37615
    15    C    1  dxy    Ryd( 3d)     0.00108       2.26253
    16    C    1  dxy    Ryd( 4d)     0.00053       3.48676
    17    C    1  dxz    Ryd( 3d)     0.00051       1.66551
    18    C    1  dxz    Ryd( 4d)     0.00027       3.40723
    19    C    1  dyz    Ryd( 3d)     0.00047       1.60866
    20    C    1  dyz    Ryd( 4d)     0.00029       3.37744
    21    C    1  dx2y2  Ryd( 3d)     0.00132       2.14045
    22    C    1  dx2y2  Ryd( 4d)     0.00039       3.43325
    23    C    1  dz2    Ryd( 3d)     0.00029       1.55560
    24    C    1  dz2    Ryd( 4d)     0.00035       3.52664
    25    C    1  f(0)   Ryd( 4f)     0.00006       3.68454
    26    C    1  f(C1)  Ryd( 4f)     0.00008       3.61944
    27    C    1  f(S1)  Ryd( 4f)     0.00007       3.60451
    28    C    1  f(C2)  Ryd( 4f)     0.00006       3.91544
    29    C    1  f(S2)  Ryd( 4f)     0.00007       3.78708
    30    C    1  f(C3)  Ryd( 4f)     0.00004       4.12683
    31    C    1  f(S3)  Ryd( 4f)     0.00008       4.14055
 
    32    C    2  S      Cor( 1S)     1.99916     -10.38770
    33    C    2  S      Val( 2S)     0.96924      -0.23334
    34    C    2  S      Ryd( 4S)     0.00093       1.43431
    35    C    2  S      Ryd( 3S)     0.00012       1.40384
    36    C    2  S      Ryd( 5S)     0.00001      21.33406
    37    C    2  px     Val( 2p)     1.12417      -0.08518
    38    C    2  px     Ryd( 3p)     0.00358       1.14530
    39    C    2  px     Ryd( 4p)     0.00015       2.17116
    40    C    2  py     Val( 2p)     1.04320      -0.07317
    41    C    2  py     Ryd( 3p)     0.00278       0.99712
    42    C    2  py     Ryd( 4p)     0.00026       2.56979
    43    C    2  pz     Val( 2p)     1.04215      -0.10775
    44    C    2  pz     Ryd( 3p)     0.00208       0.79974
    45    C    2  pz     Ryd( 4p)     0.00033       1.75044
    46    C    2  dxy    Ryd( 3d)     0.00117       1.78942
    47    C    2  dxy    Ryd( 4d)     0.00038       3.43717
    48    C    2  dxz    Ryd( 3d)     0.00053       1.59626
    49    C    2  dxz    Ryd( 4d)     0.00031       3.20015
    50    C    2  dyz    Ryd( 3d)     0.00093       1.51631
    51    C    2  dyz    Ryd( 4d)     0.00021       3.23125
    52    C    2  dx2y2  Ryd( 3d)     0.00165       1.64089
    53    C    2  dx2y2  Ryd( 4d)     0.00055       3.38988
    54    C    2  dz2    Ryd( 3d)     0.00069       1.46265
    55    C    2  dz2    Ryd( 4d)     0.00006       3.12974
    56    C    2  f(0)   Ryd( 4f)     0.00022       3.53158
    57    C    2  f(C1)  Ryd( 4f)     0.00009       3.34949
    58    C    2  f(S1)  Ryd( 4f)     0.00018       3.53858
    59    C    2  f(C2)  Ryd( 4f)     0.00010       3.73388
    60    C    2  f(S2)  Ryd( 4f)     0.00013       3.64834
    61    C    2  f(C3)  Ryd( 4f)     0.00006       3.89026
    62    C    2  f(S3)  Ryd( 4f)     0.00012       4.00377
 
    63    C    3  S      Cor( 1S)     1.99924     -10.38766
    64    C    3  S      Val( 2S)     0.97588      -0.23946
    65    C    3  S      Ryd( 3S)     0.00087       1.15138
    66    C    3  S      Ryd( 4S)     0.00010       1.32643
    67    C    3  S      Ryd( 5S)     0.00000      21.61503
    68    C    3  px     Val( 2p)     1.03939      -0.07654
    69    C    3  px     Ryd( 3p)     0.00336       0.95478
[...]
 00429,0.00000667,0.00000372,0.00001105,-0.00117957,0.00004664,-0.00003
 039,0.00043157,0.00036919,-0.00005162,-0.00021557,-0.00004672,0.000405
 03,-0.00013951,-0.00033043,-0.00047068,0.00100379,0.00045195,-0.000002
 08,-0.00152833,0.00115671,-0.00266956,0.00002284,-0.00002596,0.0000129
 7,-0.00000031,0.00004479,-0.00000451,0.00000189,-0.00000037,0.00000306
 ,-0.00003458,0.00002878,-0.00002144,-0.00108491,-0.00004952,-0.0004810
 9,-0.00235547,-0.00360837,0.00463294,0.00019562,0.00082464,-0.00009052
 ,0.00138744,-0.00275527,0.00395565,0.00133197,-0.00596940,-0.00084833,
 0.03131040,-0.14442139,-0.15522539,0.00319979,-0.00886946,-0.00405157,
 -0.00002590,0.00045866,-0.00066643,0.00001210,-0.00027864,-0.00011190,
 -0.03234398,0.16101752,0.15801574,0.00000825,-0.00001238,-0.00003606,-
 0.00000824,-0.00000140,0.00000324,0.00000114,-0.00000278,0.00000055,-0
 .00000681,-0.00000275,0.00000455,0.00000003,-0.00000160,0.00000160,-0.
 00001534,-0.00000062,0.00001586,-0.00000242,0.00000115,0.00000183,-0.0
 0000339,-0.00000180,0.00000102,0.00000265,-0.00000296,-0.00000342,0.00
 000154,0.00000423,-0.00000302,-0.00006442,-0.00004662,0.00003455,0.000
 02148,-0.00001748,-0.00001957,-0.00003196,-0.00001616,-0.00000242,-0.0
 0002072,-0.00003926,0.00006418,-0.00017894,-0.00012900,-0.00023858,-0.
 00053210,0.00053766,0.00064062,-0.00000403,0.00000174,-0.00000527,-0.0
 0000266,0.00001948,0.00000799,-0.00000207,-0.00000024,0.00000069,-0.00
 001440,-0.00000898,-0.00001269,-0.00000661,0.00001773,-0.00002040,-0.0
 0090483,0.00065261,0.00095099,0.00167791,0.00022512,0.00037311,0.00039
 416,-0.00061443,-0.00056263,-0.00155509,-0.00291845,-0.00213108,-0.016
 61875,0.00759244,0.00688015,-0.31062595,0.06814052,0.06608788,-0.00002
 360,-0.00010011,-0.00008770,-0.00007464,0.00004883,0.00000448,0.000921
 08,0.00004792,-0.00023513,0.32864827,-0.00000234,-0.00000439,-0.000021
 47,-0.00000433,-0.00000345,0.00000199,0.00000212,-0.00000064,0.0000012
 9,-0.00000313,-0.00000144,0.00000258,0.00000101,-0.00000260,0.00000248
 ,-0.00000731,0.00000177,0.00000872,-0.00000194,0.00000040,0.00000045,-
 0.00000253,-0.00000054,-0.00000011,-0.00000029,-0.00000109,-0.00000272
 ,-0.00000080,0.00000200,-0.00000257,0.00004403,-0.00004825,0.00009140,
 0.00000794,0.00001581,-0.00002870,-0.00001197,-0.00000287,-0.00000841,
 -0.00002051,0.00000050,0.00007871,-0.00007606,-0.00015261,-0.00012992,
 -0.00053785,0.00035019,0.00045197,0.00000409,-0.00000816,-0.00000057,0
 .00000771,0.00000407,0.00002923,-0.00000139,0.00000035,-0.00000054,-0.
 00000696,-0.00000149,-0.00000544,0.00004795,0.00003476,-0.00001490,0.0
 2201101,-0.00059441,-0.00493046,0.00015948,-0.00093848,-0.00602748,-0.
 00067224,-0.00101131,-0.00018206,-0.00300592,0.00194292,-0.00490154,-0
 .01529429,0.00827227,0.00395893,0.06683942,-0.06998118,-0.02783398,0.0
 0116009,0.00004010,-0.00039454,0.00004273,-0.00037129,0.00056712,0.000
 45497,-0.00122294,0.00251003,-0.07184910,0.06515761,-0.00000394,-0.000
 01023,-0.00001263,-0.00000205,0.00000014,0.00000195,-0.00000046,0.0000
 0021,-0.00000095,-0.00000073,0.00000002,-0.00000046,-0.00000025,0.0000
 0044,-0.00000028,-0.00000325,-0.00000041,0.00000229,0.00000003,-0.0000
 0101,0.00000081,0.00000064,-0.00000048,0.00000142,-0.00000020,-0.00000
 123,-0.00000082,-0.00000014,0.00000043,0.00000082,-0.00002157,-0.00000
 847,-0.00004683,0.00000613,-0.00003857,-0.00000270,-0.00000593,-0.0000
 0257,-0.00000535,-0.00000664,-0.00005683,0.00002196,-0.00018376,-0.000
 05054,-0.00010117,-0.00038246,0.00031387,0.00029364,-0.00000557,0.0000
 0902,-0.00000418,-0.00001246,0.00001517,-0.00002543,0.00000117,-0.0000
 0023,0.00000071,-0.00000860,-0.00000400,-0.00000607,-0.00006306,0.0000
 0200,-0.00002808,0.01919156,-0.00456006,0.00009303,-0.00027951,-0.0060
 1769,0.00123844,-0.00037795,-0.00003086,-0.00074804,-0.00200805,-0.004
 85878,0.00370096,-0.01260489,0.00359210,0.00718390,0.06600841,-0.02792
 400,-0.06487603,0.00099475,-0.00033757,0.00008908,0.00000475,0.0005610
 4,-0.00057742,0.00023945,0.00242850,-0.00222411,-0.07085749,0.03478232
 ,0.05841125,-0.00031372,-0.00003969,0.00036640,0.00018359,-0.00003166,
 -0.00007670,-0.00001298,0.00009262,0.00004388,0.00013183,0.00004120,-0
 .00009530,0.00001010,-0.00004262,-0.00000826,0.00017174,0.00003173,-0.
 00020621,0.00002100,-0.00002729,-0.00003982,0.00005148,0.00004997,-0.0
 0001069,-0.00009959,0.00008871,0.00005019,-0.00005499,-0.00008757,0.00
 002545,0.00112790,0.00014902,-0.00003734,-0.00002594,0.00017965,-0.000
 20608,0.00056898,0.00041369,0.00009054,-0.00020268,-0.00021982,0.00044
 912,0.00029880,0.00060090,0.00058805,-0.00091450,-0.00031621,-0.000320
 28,0.00008325,0.00000717,0.00005141,-0.00021106,-0.00007934,0.00006518
 ,0.00004459,0.00001657,-0.00002943,0.00010771,0.00009878,0.00013097,-0
 .00002403,-0.00011961,-0.00023061,-0.16831276,-0.04423798,-0.04002165,
 -0.02461827,-0.01280385,-0.01168178,-0.00351163,0.00280972,0.00278211,
 -0.00242333,0.00130582,0.00124698,0.00435466,0.00455524,0.00408399,0.0
 1170583,-0.00844899,-0.00527513,-0.00031171,-0.00010883,-0.00008040,0.
 00004998,-0.00045619,-0.00028002,0.00108106,0.00107523,0.00053242,-0.0
 0076073,0.00320209,0.00225210,0.60317177,-0.00020526,-0.00003785,0.000
 24562,0.00015529,0.00001632,-0.00004835,-0.00001419,0.00005117,0.00004
 946,0.00009190,0.00002144,-0.00005850,0.00001148,-0.00004574,-0.000002
 42,0.00010791,0.00001210,-0.00011587,0.00002070,-0.00000699,-0.0000413
 2,0.00002049,0.00002890,-0.00001394,-0.00008371,0.00006436,0.00003121,
 -0.00003992,-0.00005708,-0.00000270,0.00071394,0.00014047,0.00001286,-
 0.00012335,0.00001530,-0.00006690,0.00042024,0.00022895,-0.00004549,-0
 .00008285,-0.00011490,0.00040941,0.00017725,0.00032778,0.00027080,-0.0
 0032455,-0.00081991,-0.00009571,0.00003211,0.00003823,0.00002794,-0.00
 022004,0.00003262,0.00008043,0.00001896,0.00001509,-0.00002337,0.00005
 229,0.00007046,0.00007080,-0.00006936,0.00000980,-0.00009054,-0.046427
 86,-0.11311548,-0.03861507,-0.00351507,0.00899859,0.00922959,0.0054815
 2,0.00378401,-0.00226105,0.00143301,-0.00216656,-0.00124381,0.00111203
 ,-0.00044878,-0.00587512,-0.01853464,-0.01134665,-0.01099274,0.0033545
 2,-0.00174282,0.00018902,0.00102930,0.00086068,0.00009033,-0.00054919,
 0.00003872,-0.00025181,0.00000236,-0.00127122,0.00100549,0.02917766,0.
 56395532,-0.00023843,-0.00002589,0.00024697,0.00012303,0.00001087,-0.0
 0008384,-0.00003064,0.00006995,0.00001209,0.00009405,0.00003467,-0.000
 08643,0.00000269,-0.00002564,-0.00001601,0.00010916,0.00002374,-0.0001
 4513,0.00004435,-0.00002526,-0.00002065,0.00003752,0.00002331,-0.00000
 039,-0.00005509,0.00003643,0.00007505,-0.00002731,-0.00006450,0.000022
 24,0.00032803,-0.00005272,-0.00014623,0.00021439,0.00018661,-0.0001537
 0,0.00023603,0.00022553,0.00020686,-0.00021700,-0.00023577,0.00007786,
 0.00040196,0.00058370,0.00048924,-0.00034364,0.00016398,-0.00077372,0.
 00004806,0.00000406,0.00003742,-0.00009050,-0.00007789,0.00004801,0.00
 003633,0.00000838,-0.00000757,0.00003882,0.00004685,0.00005134,-0.0000
 0453,-0.00009428,-0.00013276,-0.03752912,-0.03569020,-0.10188828,-0.00
 018118,0.00762797,0.00833315,0.00536665,-0.00163502,0.00517367,0.00112
 993,-0.00123368,-0.00164003,0.00245002,-0.00591179,0.00149928,-0.01591
 769,-0.00841070,-0.00775056,0.00192130,0.00059876,-0.00217970,0.000929
 95,0.00034254,0.00057294,-0.00048240,-0.00025665,0.00036668,-0.0000412
 6,0.00020967,-0.00213515,0.01681490,0.03560333,0.54440245,0.00010545,0
 .00000707,-0.00012607,-0.00006309,0.00002768,0.00002149,0.00000136,-0.
 00003616,-0.00002223,-0.00004601,-0.00001363,0.00003012,-0.00000491,0.
 00001367,0.00000144,-0.00006291,-0.00000867,0.00007213,-0.00000146,0.0
 0000903,0.00001532,-0.00001833,-0.00002021,0.00000501,0.00004328,-0.00
 003715,-0.00001200,0.00002068,0.00002886,-0.00000862,-0.00039893,-0.00
 005757,0.00007105,-0.00004181,-0.00008431,0.00004551,-0.00018124,-0.00
 014857,-0.00009582,0.00013726,0.00010901,-0.00012261,-0.00016196,-0.00
 026204,-0.00016710,0.00044335,0.00000758,0.00009440,-0.00002945,-0.000
 00393,-0.00002298,0.00009390,0.00006026,-0.00005280,-0.00001557,-0.000
 00719,0.00001261,-0.00004504,-0.00004007,-0.00005140,0.00001451,0.0000
 3872,0.00006666,-0.04255980,-0.00265147,0.02884067,-0.00168006,-0.0074
 4868,-0.00372494,-0.00193409,0.00117125,-0.00076970,0.00012475,0.00023
 731,0.00047329,-0.00028244,0.00007992,-0.00083784,-0.00134084,0.002879
 96,0.00166672,0.00063948,-0.00010302,0.00043414,-0.00060892,-0.0002805
 9,-0.00047327,-0.00011918,-0.00024209,-0.00006989,-0.00043472,-0.00211
 332,-0.00066157,-0.23181637,-0.01956261,0.08609716,0.29325098,0.000037
 15,0.00000345,-0.00004520,-0.00002795,0.00000240,0.00000848,0.00000235
 ,-0.00001179,-0.00000933,-0.00001713,-0.00000417,0.00001110,-0.0000028
 3,0.00000735,0.00000047,-0.00002172,-0.00000191,0.00002284,-0.00000299
 ,0.00000201,0.00000738,-0.00000435,-0.00000605,0.00000248,0.00001691,-
 0.00001251,-0.00000564,0.00000757,0.00001003,0.00000006,-0.00009862,-0
 .00002025,-0.00001516,0.00000116,-0.00000051,0.00001095,-0.00006143,-0
 .00003823,-0.00001061,0.00004208,0.00001658,-0.00003394,-0.00008389,-0
 .00007448,-0.00004981,0.00007474,0.00013585,0.00011250,-0.00000884,-0.
 00000621,-0.00000666,0.00003403,0.00001529,-0.00002012,-0.00000429,-0.
 00000305,0.00000444,-0.00000951,-0.00001261,-0.00001310,0.00001530,-0.
 00000511,0.00003477,-0.01711987,0.00835179,0.00822229,-0.00112093,-0.0
 0258031,-0.00228756,-0.00119582,0.00060724,0.00047636,-0.00016233,0.00
 004824,0.00000950,-0.00037385,0.00060159,0.00069945,-0.00022193,-0.001
 35547,-0.00058217,-0.00038058,0.00001863,0.00020548,-0.00024217,-0.000
 18102,-0.00012385,0.00004573,-0.00004016,0.00001639,-0.00178823,-0.000
 26606,0.00029588,-0.01451203,-0.07967362,0.00265979,0.00186063,0.08249
 294,0.00002200,0.00000468,-0.00001617,-0.00000928,-0.00001144,0.000012
 61,0.00000696,-0.00000464,0.00000352,-0.00000692,-0.00000343,0.0000102
 0,0.00000091,0.00000253,0.00000314,-0.00000517,-0.00000302,0.00000993,
 -0.00000955,0.00000274,0.00000005,-0.00000265,0.00000088,-0.00000153,-
 0.00000112,0.00000309,-0.00001296,-0.00000022,0.00000584,-0.00000191,0
 .00005194,0.00001536,-0.00000978,-0.00001453,0.00000391,0.00001564,-0.
 00000451,0.00000043,0.00000180,0.00000620,-0.00000063,0.00001394,-0.00
 002652,-0.00002745,-0.00004129,-0.00009638,0.00009016,0.00006895,-0.00
 000082,-0.00000252,-0.00000026,-0.00000723,0.00000091,0.00000765,-0.00
 000335,0.00000031,-0.00000221,0.00000680,0.00000417,0.00000549,0.00000
 485,0.00000016,0.00001162,0.00040730,-0.00179614,0.00597464,0.00106726
 ,0.00012763,0.00088592,-0.00059653,-0.00038596,-0.00072219,-0.00066987
 ,0.00044043,0.00028126,0.00027746,0.00083058,0.00108463,-0.00036815,-0
 .00330029,-0.00126182,-0.00047674,0.00009421,0.00012968,0.00004162,0.0
 0010647,-0.00005518,0.00012051,0.00007355,0.00001288,-0.00129824,0.000
 89313,0.00019705,0.09210598,0.00652573,-0.13088776,-0.16312585,-0.0004
 9054,0.20652291,0.00011036,0.00001779,-0.00012722,-0.00006183,0.000007
 07,0.00003111,0.00000595,-0.00003276,-0.00001238,-0.00004634,-0.000015
 01,0.00003555,-0.00000303,0.00001486,0.00000427,-0.00005748,-0.0000128
 8,0.00007151,-0.00001059,0.00001010,0.00001285,-0.00001780,-0.00001598
 ,0.00000290,0.00003259,-0.00002761,-0.00002198,0.00001755,0.00003110,-
 0.00000954,-0.00040088,-0.00007633,-0.00000499,0.00005890,-0.00003726,
 0.00006504,-0.00021717,-0.00013530,0.00001784,0.00004406,0.00004873,-0
 .00019838,-0.00004854,-0.00018926,-0.00019353,0.00021640,0.00025070,-0
 .00000459,-0.00002602,-0.00000469,-0.00001627,0.00007220,0.00002456,-0
 .00002629,-0.00001573,-0.00000538,0.00000899,-0.00003472,-0.00002746,-
 0.00004341,0.00001445,0.00003685,0.00006342,-0.00813510,0.00824354,-0.
 03605055,0.00125447,-0.00093239,-0.00081533,0.00035318,-0.00124768,0.0
 0071065,0.00063351,-0.00020591,-0.00048759,-0.00155338,-0.00180559,0.0
 0078102,-0.00245046,0.00249061,0.00063953,-0.00003112,0.00060390,-0.00
 034410,-0.00019150,-0.00001202,-0.00001810,-0.00020918,-0.00026376,-0.
 00005280,0.00006989,0.00014717,-0.00103679,-0.10510991,0.02335096,-0.0
 6621102,0.01122773,-0.01370163,0.04062403,0.10109922,0.00001337,0.0000
 0294,-0.00002038,-0.00001848,-0.00000539,-0.00000115,-0.00000040,-0.00
 000110,-0.00000871,-0.00000775,-0.00000022,0.00000102,-0.00000256,0.00
 000672,-0.00000151,-0.00000848,0.00000183,0.00000544,0.00000045,-0.000
 00194,0.00000664,0.00000102,-0.00000291,0.00000327,0.00001021,-0.00000
 887,0.00000191,0.00000526,0.00000386,0.00000407,-0.00006683,-0.0000151
 5,-0.00000006,0.00001209,0.00000170,0.00000201,-0.00003723,-0.00002101
 ,-0.00000109,0.00000874,0.00002768,-0.00003879,-0.00004129,-0.00001912
 ,-0.00001301,0.00006154,0.00008201,0.00005829,-0.00000082,-0.00000668,
 -0.00000201,0.00003465,-0.00002400,-0.00000551,0.00000070,-0.00000223,
 0.00000414,-0.00000393,-0.00001016,-0.00000692,0.00000879,-0.00000977,
 0.00000189,-0.00496278,0.01091261,-0.00403831,0.00088087,0.00013779,-0
 .00126750,-0.00037801,-0.00068828,-0.00006191,-0.00051350,0.00035589,0
 .00036963,0.00047746,0.00059568,0.00061710,0.00078157,0.00015705,0.000
 17926,-0.00042875,-0.00007605,0.00005452,-0.00003142,-0.00008901,0.000
 06006,0.00010043,0.00005148,0.00001730,0.00003884,-0.00017998,0.000257
 17,0.02301567,-0.09887173,0.05825537,-0.00804015,0.00582534,0.02379827
 ,-0.04248670,0.14207723,0.00013987,0.00002210,-0.00014909,-0.00006834,
 0.00000135,0.00004844,0.00001374,-0.00004233,-0.00000639,-0.00005575,-
 0.00002037,0.00005039,-0.00000221,0.00001483,0.00000841,-0.00006575,-0
 .00001730,0.00008737,-0.00002266,0.00001550,0.00001126,-0.00002282,-0.
 00001533,0.00000043,0.00003291,-0.00002329,-0.00004008,0.00001713,0.00
 003816,-0.00001399,-0.00038436,-0.00007507,-0.00000549,0.00004315,-0.0
 0003755,0.00007341,-0.00022843,-0.00013949,0.00001990,0.00004761,0.000
 05845,-0.00020564,-0.00007092,-0.00025239,-0.00023979,0.00018671,0.000
 27879,0.00002366,-0.00002766,-0.00000819,-0.00001862,0.00007154,0.0000
 3528,-0.00003993,-0.00002151,-0.00000506,0.00000583,-0.00003363,-0.000
 02466,-0.00004165,0.00001421,0.00003950,0.00007480,-0.02070413,0.01263
 765,-0.02798963,0.00143785,-0.00198157,-0.00251031,-0.00138401,-0.0022
 9388,0.00040688,-0.00019348,0.00075768,0.00020026,-0.00064594,-0.00111
 203,0.00113221,-0.00174494,0.00075613,0.00111841,-0.00033863,0.0010236
 3,-0.00083067,-0.00037190,-0.00018790,-0.00007202,-0.00014582,-0.00016
 385,-0.00018901,0.00029109,0.00073764,-0.00082954,-0.06598954,0.058725
 18,-0.22526314,0.02390218,0.02609099,-0.06988544,0.07567177,-0.1256970
 8,0.32100168,0.00004777,0.00000311,-0.00005428,-0.00002540,0.00001402,
 0.00001050,0.00000126,-0.00001755,-0.00000696,-0.00002011,-0.00000661,
 0.00001474,-0.00000231,0.00000463,0.00000100,-0.00002804,-0.00000484,0
 .00003349,-0.00000149,0.00000546,0.00000530,-0.00000894,-0.00000873,0.
 00000128,0.00001705,-0.00001471,-0.00000675,0.00000866,0.00001255,-0.0
 0000485,-0.00017849,-0.00006116,-0.00003165,0.00000133,-0.00001661,0.0
 0001779,-0.00007743,-0.00005793,-0.00001861,0.00005065,0.00002721,-0.0
 0004814,-0.00007830,-0.00008079,-0.00005738,0.00027293,0.00005027,0.00
 000076,-0.00001561,-0.00000207,-0.00000896,0.00003269,0.00003079,-0.00
 001946,-0.00000814,-0.00000288,0.00000474,-0.00001916,-0.00001507,-0.0
 0002197,-0.00000023,0.00001771,0.00005097,0.00939059,-0.02284868,-0.00
 832368,-0.00258544,-0.00068407,0.00064065,0.00139661,-0.00044399,-0.00
 012205,0.00033197,-0.00046072,-0.00041405,-0.00018454,-0.00087185,-0.0
 0143548,-0.00364269,-0.00030605,0.00073482,-0.00040305,-0.00187648,-0.
 00135452,-0.00000109,0.00005505,0.00007984,-0.00027414,-0.00012740,-0.
 00020018,0.00014601,-0.00051953,-0.00017169,-0.08444007,0.02298865,0.0
 0494550,-0.02425561,0.04902525,0.03197981,0.00341035,0.03157744,-0.009
 34735,0.10114243,0.00011474,0.00001601,-0.00013103,-0.00008773,-0.0000
 1673,0.00002807,0.00001052,-0.00002715,-0.00002351,-0.00004972,-0.0000
 1172,0.00003404,-0.00000572,0.00002436,0.00000215,-0.00005975,-0.00000
 577,0.00006498,-0.00001436,0.00000435,0.00002192,-0.00001187,-0.000014
 43,0.00000653,0.00004186,-0.00003228,-0.00002029,0.00002123,0.00003151
 ,0.00000107,-0.00027156,-0.00000627,-0.00002737,-0.00002127,-0.0000287
 6,0.00006970,-0.00017460,-0.00011895,-0.00003590,0.00007743,0.00007963
 ,-0.00011057,-0.00019023,-0.00019305,-0.00019633,0.00016849,0.00024345
 ,0.00033440,-0.00002299,-0.00001534,-0.00001431,0.00008438,-0.00000626
 ,-0.00001565,-0.00001112,-0.00000744,0.00001094,-0.00002063,-0.0000373
 8,-0.00003121,0.00002428,-0.00000356,0.00010473,0.00741444,-0.03928295
 ,-0.01500325,0.00366615,-0.00051913,-0.00187976,-0.00092185,0.00020264
 ,-0.00067774,0.00015430,0.00020144,0.00036038,0.00061629,-0.00066815,-
 0.00169159,-0.00771181,-0.00134799,0.00045536,-0.00204903,-0.00049562,
 0.00095692,-0.00024523,-0.00013567,0.00000267,-0.00057237,-0.00030633,
 -0.00035291,0.00022374,0.00024163,0.00063971,0.01462026,-0.26899098,-0
 .05297550,0.03463049,-0.01384522,-0.02699910,0.02595766,-0.06020623,0.
 03086448,-0.07538445,0.38527834,0.00007206,0.00000967,-0.00007575,-0.0
 0004338,-0.00000803,0.00002188,0.00000859,-0.00001858,-0.00000713,-0.0
 0002879,-0.00000898,0.00002385,-0.00000158,0.00001066,0.00000316,-0.00
 003423,-0.00000552,0.00004199,-0.00001193,0.00000577,0.00000864,-0.000
 00983,-0.00000755,0.00000147,0.00001839,-0.00001395,-0.00001882,0.0000
 1028,0.00001949,-0.00000373,-0.00014398,-0.00000214,-0.00000423,-0.000
 02668,-0.00004853,0.00005360,-0.00008898,-0.00007057,-0.00003529,0.000
 05143,0.00005066,-0.00004428,-0.00010623,-0.00012891,-0.00013565,0.000
 11336,0.00010812,0.00015876,-0.00001605,-0.00000158,-0.00000987,0.0000
 3044,0.00000845,-0.00000663,-0.00000945,-0.00000307,0.00000377,-0.0000
 1255,-0.00001693,-0.00001714,-0.00000181,0.00002543,0.00005734,0.00188
 469,-0.02485134,0.00160342,0.00108220,-0.00080705,-0.00081935,-0.00016
 691,0.00044958,-0.00015721,0.00049504,-0.00026512,-0.00012295,-0.00079
 534,0.00014336,-0.00116749,-0.00269567,-0.00057224,0.00168499,-0.00090
 636,0.00014597,0.00029858,-0.00010607,-0.00003232,0.00000357,-0.000216
 84,-0.00004655,-0.00027155,0.00019059,0.00015773,0.00038795,0.00290956
 ,-0.05272251,-0.08830422,0.02849479,-0.03519795,-0.01235501,-0.0130656
 0,0.04746656,0.00406708,-0.01687318,0.06622796,0.09513625\\-0.00001064
 ,-0.00000453,0.00000876,-0.00000238,-0.00000245,-0.00000656,0.00000654
 ,-0.00000007,-0.00000508,-0.00000296,0.00000124,0.00000066,0.00000365,
 0.00000374,-0.00000321,0.00000455,0.00000619,0.00000468,-0.00000205,0.
 00000439,0.00000170,-0.00000267,-0.00000278,0.00000004,0.00000421,0.00
 000572,-0.00000020,0.00000218,-0.00000349,-0.00000573,0.00000042,-0.00
 000299,0.00000304,-0.00000718,-0.00000721,0.00000705,-0.00000498,0.000
 00379,0.00000672,0.00000877,0.00000217,-0.00001122,-0.00000675,-0.0000
 0598,-0.00000652,-0.00000738,-0.00000461,-0.00000644,-0.00000358,-0.00
 000526,-0.00000073,-0.00000076,0.00000419,0.00000893,-0.00000379,0.000
 00082,0.00000162,0.00000310,0.00000102,-0.00000525,0.00000598,-0.00000
 076,-0.00000359,0.00000565,-0.00001498,-0.00003156,0.00001259,0.000001
 72,0.00001050,-0.00000178,0.00000280,0.00000531,0.00000759,-0.00000390
 ,0.00000065,-0.00001398,-0.00000165,-0.00000452,0.00000965,0.00002361,
 0.00001086,-0.00000526,0.00000379,-0.00000086,-0.00000407,-0.00000032,
 0.00000082,0.00000052,-0.00000432,-0.00000130,-0.00000153,-0.00000633,
 0.00000025,0.00001041,0.00002267,-0.00001761,-0.00001746,0.00000287,0.
 00001109,0.00001028,-0.00000775,0.00003726,0.00000313,-0.00001136,-0.0
 0000958\\\@
 The archive entry for this job was punched.


 NOT WHAT WE DID SHALL BE THE TEST
 WHEN ACT AND WILL ARE DONE,
 BUT WHAT OUR LORD INFERS WE WOULD-
 HAD WE DIVINER BEEN.
           EMILY DICKINSON  POEMS NO. CLXXV
 Job cpu time:       2 days 22 hours 45 minutes  5.2 seconds.
 Elapsed time:       0 days  2 hours 15 minutes 13.0 seconds.
 File lengths (MBytes):  RWF=   2770 Int=      0 D2E=      0 Chk=     47 Scr=      1
 Normal termination of Gaussian 16 at Wed Nov  1 02:25:14 2023.
