 Entering Gaussian System, Link 0=g16
 Input=ph_35prf_37_1_m062x.com
 Output=ph_35prf_37_1_m062x.log
 Initial command:
 /arc/software/Gaussian/g16.c01/l1.exe "/tmp/slurm/41757/Gau-214540.inp" -scrdir="/tmp/slurm/41757/"
 Entering Link 1 = /arc/software/Gaussian/g16.c01/l1.exe PID=    214541.
  
 Copyright (c) 1988-2019, Gaussian, Inc.  All Rights Reserved.
  
 This is part of the Gaussian(R) 16 program.  It is based on
 the Gaussian(R) 09 system (copyright 2009, Gaussian, Inc.),
 the Gaussian(R) 03 system (copyright 2003, Gaussian, Inc.),
 the Gaussian(R) 98 system (copyright 1998, Gaussian, Inc.),
 the Gaussian(R) 94 system (copyright 1995, Gaussian, Inc.),
 the Gaussian 92(TM) system (copyright 1992, Gaussian, Inc.),
 the Gaussian 90(TM) system (copyright 1990, Gaussian, Inc.),
 the Gaussian 88(TM) system (copyright 1988, Gaussian, Inc.),
 the Gaussian 86(TM) system (copyright 1986, Carnegie Mellon
 University), and the Gaussian 82(TM) system (copyright 1983,
 Carnegie Mellon University). Gaussian is a federally registered
 trademark of Gaussian, Inc.
  
 This software contains proprietary and confidential information,
 including trade secrets, belonging to Gaussian, Inc.
  
 This software is provided under written license and may be
 used, copied, transmitted, or stored only in accord with that
 written license.
  
 The following legend is applicable only to US Government
 contracts under FAR:
  
                    RESTRICTED RIGHTS LEGEND
  
 Use, reproduction and disclosure by the US Government is
 subject to restrictions as set forth in subparagraphs (a)
 and (c) of the Commercial Computer Software - Restricted
 Rights clause in FAR 52.227-19.
  
 Gaussian, Inc.
 340 Quinnipiac St., Bldg. 40, Wallingford CT 06492
  
  
 ---------------------------------------------------------------
 Warning -- This program may not be used in any manner that
 competes with the business of Gaussian, Inc. or will provide
 assistance to any competitor of Gaussian, Inc.  The licensee
 of this program is prohibited from giving any competitor of
 Gaussian, Inc. access to this program.  By using this program,
 the user acknowledges that Gaussian, Inc. is engaged in the
 business of creating and licensing software in the field of
 computational chemistry and represents and warrants to the
 licensee that it is not a competitor of Gaussian, Inc. and that
 it will not use this program in any manner prohibited above.
 ---------------------------------------------------------------
  

 Cite this work as:
 Gaussian 16, Revision C.01,
 M. J. Frisch, G. W. Trucks, H. B. Schlegel, G. E. Scuseria, 
 M. A. Robb, J. R. Cheeseman, G. Scalmani, V. Barone, 
 G. A. Petersson, H. Nakatsuji, X. Li, M. Caricato, A. V. Marenich, 
 J. Bloino, B. G. Janesko, R. Gomperts, B. Mennucci, H. P. Hratchian, 
 J. V. Ortiz, A. F. Izmaylov, J. L. Sonnenberg, D. Williams-Young, 
 F. Ding, F. Lipparini, F. Egidi, J. Goings, B. Peng, A. Petrone, 
 T. Henderson, D. Ranasinghe, V. G. Zakrzewski, J. Gao, N. Rega, 
 G. Zheng, W. Liang, M. Hada, M. Ehara, K. Toyota, R. Fukuda, 
 J. Hasegawa, M. Ishida, T. Nakajima, Y. Honda, O. Kitao, H. Nakai, 
 T. Vreven, K. Throssell, J. A. Montgomery, Jr., J. E. Peralta, 
 F. Ogliaro, M. J. Bearpark, J. J. Heyd, E. N. Brothers, K. N. Kudin, 
 V. N. Staroverov, T. A. Keith, R. Kobayashi, J. Normand, 
 K. Raghavachari, A. P. Rendell, J. C. Burant, S. S. Iyengar, 
 J. Tomasi, M. Cossi, J. M. Millam, M. Klene, C. Adamo, R. Cammi, 
 J. W. Ochterski, R. L. Martin, K. Morokuma, O. Farkas, 
 J. B. Foresman, and D. J. Fox, Gaussian, Inc., Wallingford CT, 2019.
 
 ******************************************
 Gaussian 16:  ES64L-G16RevC.01  3-Jul-2019
                14-Nov-2023 
 ******************************************
 %nprocshared=32
 Will use up to   32 processors via shared memory.
 %mem=8000MB
 %chk=ph_35prf_37_1_m062x.chk
 -----------------------------------------
 # opt freq=noraman m062x def2tzvp pop=nbo
 -----------------------------------------
 1/18=20,19=15,26=3,38=1/1,3;
 2/9=110,12=2,17=6,18=5,40=1/2;
 3/5=44,7=101,11=2,25=1,30=1,71=1,74=-55/1,2,3;
 4//1;
 5/5=2,38=5/2;
 6/7=2,8=2,9=2,10=2,28=1,40=1/1,7;
 7//1,2,3,16;
 1/18=20,19=15,26=3/3(2);
 2/9=110/2;
 99//99;
 2/9=110/2;
 3/5=44,7=101,11=2,25=1,30=1,71=1,74=-55/1,2,3;
 4/5=5,16=3,69=1/1;
 5/5=2,38=5/2;
 7//1,2,3,16;
 1/18=20,19=15,26=3/3(-5);
 2/9=110/2;
 6/7=2,8=2,9=2,10=2,19=2,28=1,40=1/1,7;
 99/9=1/99;
 ------------
 Structure697
 ------------
 Symbolic Z-matrix:
 Charge =  0 Multiplicity = 1
 C                    -4.1823   -2.1181    2.9882 
 C                    -3.5545   -1.2053    3.8323 
 C                    -3.1867    0.0451    3.3435 
 C                    -3.4415    0.3879    2.0186 
 C                    -4.0682   -0.5284    1.1777 
 C                    -4.4468   -1.7922    1.651 
 H                    -2.6999    0.7549    3.9973 
 H                    -4.2728   -0.2436    0.1557 
 H                    -3.3511   -1.4682    4.8605 
 H                    -4.4497   -3.0901    3.377 
 C                    -6.3921   -4.6092   -0.9534 
 C                    -5.3411   -3.826    -1.4452 
 C                    -4.7172   -2.9129   -0.5851 
 C                    -5.119    -2.7718    0.7487 
 C                    -6.1702   -3.5717    1.2129 
 C                    -6.8132   -4.4937    0.3767 
 H                    -3.8995   -2.3086   -0.9533 
 H                    -6.5021   -3.4594    2.236 
 H                    -3.1577    1.3614    1.645 
 H                    -6.8889   -5.3114   -1.6116 
 C                    -4.8919   -3.9501   -2.9108 
 F                    -3.5706   -3.7518   -2.9553 
 F                    -5.0695   -5.2187   -3.2932 
 C                    -7.9791   -5.3468    0.904 
 F                    -7.9323   -6.5333    0.2899 
 F                    -7.7475   -5.6104    2.1942 
 C                    -5.6474   -2.962    -3.8473 
 F                    -6.9676   -3.1738   -3.7648 
 F                    -5.4603   -1.7028   -3.4292 
 C                    -9.3594   -4.6552    0.7026 
 F                    -9.3673   -3.464     1.3154 
 F                    -9.5525   -4.3908   -0.5964 
 C                    -5.1908   -3.0928   -5.3226 
 F                    -5.8458   -2.24     -6.1133 
 F                    -3.8888   -2.8408   -5.4728 
 F                    -5.4014   -4.3167   -5.811 
 C                    -10.5284  -5.5216    1.2363 
 F                    -11.705   -4.9173    1.0575 
 F                    -10.6016  -6.705     0.6237 
 F                    -10.4152  -5.7744    2.5418 
 

 GradGradGradGradGradGradGradGradGradGradGradGradGradGradGradGradGradGrad
 Berny optimization.
 Initialization pass.
                           ----------------------------
                           !    Initial Parameters    !
                           ! (Angstroms and Degrees)  !
 --------------------------                            --------------------------
 ! Name  Definition              Value          Derivative Info.                !
 --------------------------------------------------------------------------------
 ! R1    R(1,2)                  1.3928         estimate D2E/DX2                !
 ! R2    R(1,6)                  1.4015         estimate D2E/DX2                !
 ! R3    R(1,10)                 1.0805         estimate D2E/DX2                !
 ! R4    R(2,3)                  1.392          estimate D2E/DX2                !
 ! R5    R(2,9)                  1.0806         estimate D2E/DX2                !
 ! R6    R(3,4)                  1.392          estimate D2E/DX2                !
 ! R7    R(3,7)                  1.0809         estimate D2E/DX2                !
 ! R8    R(4,5)                  1.3926         estimate D2E/DX2                !
 ! R9    R(4,19)                 1.0807         estimate D2E/DX2                !
 ! R10   R(5,6)                  1.4016         estimate D2E/DX2                !
 ! R11   R(5,8)                  1.0805         estimate D2E/DX2                !
 ! R12   R(6,14)                 1.4918         estimate D2E/DX2                !
 ! R13   R(11,12)                1.4            estimate D2E/DX2                !
 ! R14   R(11,16)                1.3999         estimate D2E/DX2                !
 ! R15   R(11,20)                1.0831         estimate D2E/DX2                !
 ! R16   R(12,13)                1.401          estimate D2E/DX2                !
 ! R17   R(12,21)                1.5379         estimate D2E/DX2                !
 ! R18   R(13,14)                1.4001         estimate D2E/DX2                !
 ! R19   R(13,17)                1.0814         estimate D2E/DX2                !
 ! R20   R(14,15)                1.4001         estimate D2E/DX2                !
 ! R21   R(15,16)                1.401          estimate D2E/DX2                !
 ! R22   R(15,18)                1.0814         estimate D2E/DX2                !
 ! R23   R(16,24)                1.5379         estimate D2E/DX2                !
 ! R24   R(21,22)                1.3368         estimate D2E/DX2                !
 ! R25   R(21,23)                1.3368         estimate D2E/DX2                !
 ! R26   R(21,27)                1.557          estimate D2E/DX2                !
 ! R27   R(24,25)                1.3368         estimate D2E/DX2                !
 ! R28   R(24,26)                1.3371         estimate D2E/DX2                !
 ! R29   R(24,30)                1.557          estimate D2E/DX2                !
 ! R30   R(27,28)                1.3396         estimate D2E/DX2                !
 ! R31   R(27,29)                1.3399         estimate D2E/DX2                !
 ! R32   R(27,33)                1.5499         estimate D2E/DX2                !
 ! R33   R(30,31)                1.3396         estimate D2E/DX2                !
 ! R34   R(30,32)                1.3396         estimate D2E/DX2                !
 ! R35   R(30,37)                1.5499         estimate D2E/DX2                !
 ! R36   R(33,34)                1.3347         estimate D2E/DX2                !
 ! R37   R(33,35)                1.3346         estimate D2E/DX2                !
 ! R38   R(33,36)                1.3345         estimate D2E/DX2                !
 ! R39   R(37,38)                1.3347         estimate D2E/DX2                !
 ! R40   R(37,39)                1.3346         estimate D2E/DX2                !
 ! R41   R(37,40)                1.3346         estimate D2E/DX2                !
 ! A1    A(2,1,6)              120.7243         estimate D2E/DX2                !
 ! A2    A(2,1,10)             118.8846         estimate D2E/DX2                !
 ! A3    A(6,1,10)             120.3846         estimate D2E/DX2                !
 ! A4    A(1,2,3)              119.6691         estimate D2E/DX2                !
 ! A5    A(1,2,9)              120.1367         estimate D2E/DX2                !
 ! A6    A(3,2,9)              120.1938         estimate D2E/DX2                !
 ! A7    A(2,3,4)              120.4674         estimate D2E/DX2                !
 ! A8    A(2,3,7)              119.7681         estimate D2E/DX2                !
 ! A9    A(4,3,7)              119.7645         estimate D2E/DX2                !
 ! A10   A(3,4,5)              119.6718         estimate D2E/DX2                !
 ! A11   A(3,4,19)             120.1859         estimate D2E/DX2                !
 ! A12   A(5,4,19)             120.1419         estimate D2E/DX2                !
 ! A13   A(4,5,6)              120.7249         estimate D2E/DX2                !
 ! A14   A(4,5,8)              118.8759         estimate D2E/DX2                !
 ! A15   A(6,5,8)              120.3924         estimate D2E/DX2                !
 ! A16   A(1,6,5)              118.7424         estimate D2E/DX2                !
 ! A17   A(1,6,14)             120.6243         estimate D2E/DX2                !
 ! A18   A(5,6,14)             120.6333         estimate D2E/DX2                !
 ! A19   A(12,11,16)           120.893          estimate D2E/DX2                !
 ! A20   A(12,11,20)           119.5753         estimate D2E/DX2                !
 ! A21   A(16,11,20)           119.5312         estimate D2E/DX2                !
 ! A22   A(11,12,13)           118.8996         estimate D2E/DX2                !
 ! A23   A(11,12,21)           120.5916         estimate D2E/DX2                !
 ! A24   A(13,12,21)           120.5025         estimate D2E/DX2                !
 ! A25   A(12,13,14)           121.515          estimate D2E/DX2                !
 ! A26   A(12,13,17)           119.4669         estimate D2E/DX2                !
 ! A27   A(14,13,17)           119.0152         estimate D2E/DX2                !
 ! A28   A(6,14,13)            120.8661         estimate D2E/DX2                !
 ! A29   A(6,14,15)            120.8578         estimate D2E/DX2                !
 ! A30   A(13,14,15)           118.2759         estimate D2E/DX2                !
 ! A31   A(14,15,16)           121.5122         estimate D2E/DX2                !
 ! A32   A(14,15,18)           118.9964         estimate D2E/DX2                !
 ! A33   A(16,15,18)           119.482          estimate D2E/DX2                !
 ! A34   A(11,16,15)           118.9031         estimate D2E/DX2                !
 ! A35   A(11,16,24)           120.5331         estimate D2E/DX2                !
 ! A36   A(15,16,24)           120.5547         estimate D2E/DX2                !
 ! A37   A(12,21,22)           107.9654         estimate D2E/DX2                !
 ! A38   A(12,21,23)           108.0816         estimate D2E/DX2                !
 ! A39   A(12,21,27)           112.3502         estimate D2E/DX2                !
 ! A40   A(22,21,23)           105.2214         estimate D2E/DX2                !
 ! A41   A(22,21,27)           111.4345         estimate D2E/DX2                !
 ! A42   A(23,21,27)           111.4518         estimate D2E/DX2                !
 ! A43   A(16,24,25)           107.9565         estimate D2E/DX2                !
 ! A44   A(16,24,26)           107.9928         estimate D2E/DX2                !
 ! A45   A(16,24,30)           112.4165         estimate D2E/DX2                !
 ! A46   A(25,24,26)           105.2023         estimate D2E/DX2                !
 ! A47   A(25,24,30)           111.4609         estimate D2E/DX2                !
 ! A48   A(26,24,30)           111.4665         estimate D2E/DX2                !
 ! A49   A(21,27,28)           109.9269         estimate D2E/DX2                !
 ! A50   A(21,27,29)           109.9352         estimate D2E/DX2                !
 ! A51   A(21,27,33)           112.0884         estimate D2E/DX2                !
 ! A52   A(28,27,29)           105.4842         estimate D2E/DX2                !
 ! A53   A(28,27,33)           109.6097         estimate D2E/DX2                !
 ! A54   A(29,27,33)           109.5842         estimate D2E/DX2                !
 ! A55   A(24,30,31)           109.9406         estimate D2E/DX2                !
 ! A56   A(24,30,32)           109.9313         estimate D2E/DX2                !
 ! A57   A(24,30,37)           112.0752         estimate D2E/DX2                !
 ! A58   A(31,30,32)           105.499          estimate D2E/DX2                !
 ! A59   A(31,30,37)           109.5797         estimate D2E/DX2                !
 ! A60   A(32,30,37)           109.6043         estimate D2E/DX2                !
 ! A61   A(27,33,34)           111.4326         estimate D2E/DX2                !
 ! A62   A(27,33,35)           112.2464         estimate D2E/DX2                !
 ! A63   A(27,33,36)           112.2895         estimate D2E/DX2                !
 ! A64   A(34,33,35)           106.9433         estimate D2E/DX2                !
 ! A65   A(34,33,36)           106.9617         estimate D2E/DX2                !
 ! A66   A(35,33,36)           106.6149         estimate D2E/DX2                !
 ! A67   A(30,37,38)           111.4491         estimate D2E/DX2                !
 ! A68   A(30,37,39)           112.2719         estimate D2E/DX2                !
 ! A69   A(30,37,40)           112.2576         estimate D2E/DX2                !
 ! A70   A(38,37,39)           106.9551         estimate D2E/DX2                !
 ! A71   A(38,37,40)           106.9523         estimate D2E/DX2                !
 ! A72   A(39,37,40)           106.6015         estimate D2E/DX2                !
 ! D1    D(6,1,2,3)              0.0677         estimate D2E/DX2                !
 ! D2    D(6,1,2,9)           -179.7217         estimate D2E/DX2                !
 ! D3    D(10,1,2,3)           179.1434         estimate D2E/DX2                !
 ! D4    D(10,1,2,9)            -0.6461         estimate D2E/DX2                !
 ! D5    D(2,1,6,5)             -0.0393         estimate D2E/DX2                !
 ! D6    D(2,1,6,14)           179.981          estimate D2E/DX2                !
 ! D7    D(10,1,6,5)          -179.1011         estimate D2E/DX2                !
 ! D8    D(10,1,6,14)            0.9192         estimate D2E/DX2                !
 ! D9    D(1,2,3,4)             -0.0285         estimate D2E/DX2                !
 ! D10   D(1,2,3,7)            179.9668         estimate D2E/DX2                !
 ! D11   D(9,2,3,4)            179.7608         estimate D2E/DX2                !
 ! D12   D(9,2,3,7)             -0.2439         estimate D2E/DX2                !
 ! D13   D(2,3,4,5)             -0.0383         estimate D2E/DX2                !
 ! D14   D(2,3,4,19)           179.7469         estimate D2E/DX2                !
 ! D15   D(7,3,4,5)            179.9664         estimate D2E/DX2                !
 ! D16   D(7,3,4,19)            -0.2483         estimate D2E/DX2                !
 ! D17   D(3,4,5,6)              0.067          estimate D2E/DX2                !
 ! D18   D(3,4,5,8)            179.1139         estimate D2E/DX2                !
 ! D19   D(19,4,5,6)          -179.7183         estimate D2E/DX2                !
 ! D20   D(19,4,5,8)            -0.6715         estimate D2E/DX2                !
 ! D21   D(4,5,6,1)             -0.0283         estimate D2E/DX2                !
 ! D22   D(4,5,6,14)           179.9514         estimate D2E/DX2                !
 ! D23   D(8,5,6,1)           -179.0608         estimate D2E/DX2                !
 ! D24   D(8,5,6,14)             0.9189         estimate D2E/DX2                !
 ! D25   D(1,6,14,13)         -140.5008         estimate D2E/DX2                !
 ! D26   D(1,6,14,15)           39.6519         estimate D2E/DX2                !
 ! D27   D(5,6,14,13)           39.5199         estimate D2E/DX2                !
 ! D28   D(5,6,14,15)         -140.3274         estimate D2E/DX2                !
 ! D29   D(16,11,12,13)         -0.3862         estimate D2E/DX2                !
 ! D30   D(16,11,12,21)       -179.4846         estimate D2E/DX2                !
 ! D31   D(20,11,12,13)        179.3779         estimate D2E/DX2                !
 ! D32   D(20,11,12,21)          0.2794         estimate D2E/DX2                !
 ! D33   D(12,11,16,15)          0.3973         estimate D2E/DX2                !
 ! D34   D(12,11,16,24)        179.3065         estimate D2E/DX2                !
 ! D35   D(20,11,16,15)       -179.3668         estimate D2E/DX2                !
 ! D36   D(20,11,16,24)         -0.4577         estimate D2E/DX2                !
 ! D37   D(11,12,13,14)          0.1766         estimate D2E/DX2                !
 ! D38   D(11,12,13,17)        179.5425         estimate D2E/DX2                !
 ! D39   D(21,12,13,14)        179.2759         estimate D2E/DX2                !
 ! D40   D(21,12,13,17)         -1.3582         estimate D2E/DX2                !
 ! D41   D(11,12,21,22)       -146.1087         estimate D2E/DX2                !
 ! D42   D(11,12,21,23)        -32.7671         estimate D2E/DX2                !
 ! D43   D(11,12,21,27)         90.6141         estimate D2E/DX2                !
 ! D44   D(13,12,21,22)         34.8074         estimate D2E/DX2                !
 ! D45   D(13,12,21,23)        148.149          estimate D2E/DX2                !
 ! D46   D(13,12,21,27)        -88.4698         estimate D2E/DX2                !
 ! D47   D(12,13,14,6)        -179.8352         estimate D2E/DX2                !
 ! D48   D(12,13,14,15)          0.016          estimate D2E/DX2                !
 ! D49   D(17,13,14,6)           0.7961         estimate D2E/DX2                !
 ! D50   D(17,13,14,15)       -179.3527         estimate D2E/DX2                !
 ! D51   D(6,14,15,16)         179.8468         estimate D2E/DX2                !
 ! D52   D(6,14,15,18)           0.9663         estimate D2E/DX2                !
 ! D53   D(13,14,15,16)         -0.0044         estimate D2E/DX2                !
 ! D54   D(13,14,15,18)       -178.8849         estimate D2E/DX2                !
 ! D55   D(14,15,16,11)         -0.1994         estimate D2E/DX2                !
 ! D56   D(14,15,16,24)       -179.1083         estimate D2E/DX2                !
 ! D57   D(18,15,16,11)        178.6758         estimate D2E/DX2                !
 ! D58   D(18,15,16,24)         -0.2332         estimate D2E/DX2                !
 ! D59   D(11,16,24,25)         34.3063         estimate D2E/DX2                !
 ! D60   D(11,16,24,26)        147.5775         estimate D2E/DX2                !
 ! D61   D(11,16,24,30)        -89.0417         estimate D2E/DX2                !
 ! D62   D(15,16,24,25)       -146.8026         estimate D2E/DX2                !
 ! D63   D(15,16,24,26)        -33.5314         estimate D2E/DX2                !
 ! D64   D(15,16,24,30)         89.8494         estimate D2E/DX2                !
 ! D65   D(12,21,27,28)        -57.7964         estimate D2E/DX2                !
 ! D66   D(12,21,27,29)         57.8973         estimate D2E/DX2                !
 ! D67   D(12,21,27,33)       -179.9629         estimate D2E/DX2                !
 ! D68   D(22,21,27,28)       -179.1079         estimate D2E/DX2                !
 ! D69   D(22,21,27,29)        -63.4142         estimate D2E/DX2                !
 ! D70   D(22,21,27,33)         58.7255         estimate D2E/DX2                !
 ! D71   D(23,21,27,28)         63.678          estimate D2E/DX2                !
 ! D72   D(23,21,27,29)        179.3717         estimate D2E/DX2                !
 ! D73   D(23,21,27,33)        -58.4885         estimate D2E/DX2                !
 ! D74   D(16,24,30,31)        -57.8838         estimate D2E/DX2                !
 ! D75   D(16,24,30,32)         57.8335         estimate D2E/DX2                !
 ! D76   D(16,24,30,37)        179.9873         estimate D2E/DX2                !
 ! D77   D(25,24,30,31)       -179.2499         estimate D2E/DX2                !
 ! D78   D(25,24,30,32)        -63.5326         estimate D2E/DX2                !
 ! D79   D(25,24,30,37)         58.6211         estimate D2E/DX2                !
 ! D80   D(26,24,30,31)         63.5334         estimate D2E/DX2                !
 ! D81   D(26,24,30,32)        179.2507         estimate D2E/DX2                !
 ! D82   D(26,24,30,37)        -58.5955         estimate D2E/DX2                !
 ! D83   D(21,27,33,34)       -179.9685         estimate D2E/DX2                !
 ! D84   D(21,27,33,35)        -60.0464         estimate D2E/DX2                !
 ! D85   D(21,27,33,36)         60.0562         estimate D2E/DX2                !
 ! D86   D(28,27,33,34)         57.6843         estimate D2E/DX2                !
 ! D87   D(28,27,33,35)        177.6064         estimate D2E/DX2                !
 ! D88   D(28,27,33,36)        -62.291          estimate D2E/DX2                !
 ! D89   D(29,27,33,34)        -57.6289         estimate D2E/DX2                !
 ! D90   D(29,27,33,35)         62.2932         estimate D2E/DX2                !
 ! D91   D(29,27,33,36)       -177.6041         estimate D2E/DX2                !
 ! D92   D(24,30,37,38)        179.9984         estimate D2E/DX2                !
 ! D93   D(24,30,37,39)        -60.0352         estimate D2E/DX2                !
 ! D94   D(24,30,37,40)         60.0456         estimate D2E/DX2                !
 ! D95   D(31,30,37,38)         57.6639         estimate D2E/DX2                !
 ! D96   D(31,30,37,39)        177.6302         estimate D2E/DX2                !
 ! D97   D(31,30,37,40)        -62.289          estimate D2E/DX2                !
 ! D98   D(32,30,37,38)        -57.6615         estimate D2E/DX2                !
 ! D99   D(32,30,37,39)         62.3048         estimate D2E/DX2                !
 ! D100  D(32,30,37,40)       -177.6144         estimate D2E/DX2                !
 --------------------------------------------------------------------------------
 Trust Radius=3.00D-01 FncErr=1.00D-07 GrdErr=1.00D-06 EigMax=2.50D+02 EigMin=1.00D-04
 Number of steps in this run=    223 maximum allowed number of steps=    240.
 GradGradGradGradGradGradGradGradGradGradGradGradGradGradGradGradGradGrad

                          Input orientation:                          
 ---------------------------------------------------------------------
 Center     Atomic      Atomic             Coordinates (Angstroms)
 Number     Number       Type             X           Y           Z
 ---------------------------------------------------------------------
      1          6           0       -4.182300   -2.118100    2.988200
      2          6           0       -3.554500   -1.205300    3.832300
      3          6           0       -3.186700    0.045100    3.343500
      4          6           0       -3.441500    0.387900    2.018600
      5          6           0       -4.068200   -0.528400    1.177700
      6          6           0       -4.446800   -1.792200    1.651000
      7          1           0       -2.699900    0.754900    3.997300
      8          1           0       -4.272800   -0.243600    0.155700
      9          1           0       -3.351100   -1.468200    4.860500
     10          1           0       -4.449700   -3.090100    3.377000
     11          6           0       -6.392100   -4.609200   -0.953400
     12          6           0       -5.341100   -3.826000   -1.445200
     13          6           0       -4.717200   -2.912900   -0.585100
     14          6           0       -5.119000   -2.771800    0.748700
     15          6           0       -6.170200   -3.571700    1.212900
     16          6           0       -6.813200   -4.493700    0.376700
     17          1           0       -3.899500   -2.308600   -0.953300
     18          1           0       -6.502100   -3.459400    2.236000
     19          1           0       -3.157700    1.361400    1.645000
     20          1           0       -6.888900   -5.311400   -1.611600
     21          6           0       -4.891900   -3.950100   -2.910800
     22          9           0       -3.570600   -3.751800   -2.955300
     23          9           0       -5.069500   -5.218700   -3.293200
     24          6           0       -7.979100   -5.346800    0.904000
     25          9           0       -7.932300   -6.533300    0.289900
     26          9           0       -7.747500   -5.610400    2.194200
     27          6           0       -5.647400   -2.962000   -3.847300
     28          9           0       -6.967600   -3.173800   -3.764800
     29          9           0       -5.460300   -1.702800   -3.429200
     30          6           0       -9.359400   -4.655200    0.702600
     31          9           0       -9.367300   -3.464000    1.315400
     32          9           0       -9.552500   -4.390800   -0.596400
     33          6           0       -5.190800   -3.092800   -5.322600
     34          9           0       -5.845800   -2.240000   -6.113300
     35          9           0       -3.888800   -2.840800   -5.472800
     36          9           0       -5.401400   -4.316700   -5.811000
     37          6           0      -10.528400   -5.521600    1.236300
     38          9           0      -11.705000   -4.917300    1.057500
     39          9           0      -10.601600   -6.705000    0.623700
     40          9           0      -10.415200   -5.774400    2.541800
 ---------------------------------------------------------------------
                    Distance matrix (angstroms):
                    1          2          3          4          5
     1  C    0.000000
     2  C    1.392782   0.000000
     3  C    2.407674   1.392014   0.000000
     4  C    2.787283   2.416726   1.392047   0.000000
     5  C    2.412069   2.787289   2.407620   1.392649   0.000000
     6  C    1.401526   2.428728   2.797871   2.428702   1.401621
     7  H    3.386727   2.144749   1.080854   2.144741   3.386628
     8  H    3.397793   3.867584   3.380093   2.135474   1.080489
     9  H    2.149133   1.080594   2.149045   3.395538   3.867877
    10  H    1.080487   2.135685   3.380203   3.867583   3.397760
    11  C    5.159942   6.522379   7.099327   6.519957   5.157037
    12  C    4.890274   6.157273   6.523688   5.776101   4.401596
    13  C    3.699500   4.876596   5.150349   4.393398   3.035540
    14  C    2.513979   3.796073   4.289720   3.796098   2.514173
    15  C    3.035851   4.393517   5.149949   4.875796   3.698827
    16  C    4.402845   5.777012   6.523351   6.155828   4.888786
    17  H    3.956221   4.923237   4.950806   4.038944   2.781858
    18  H    2.783229   4.039491   4.949743   4.921001   3.954065
    19  H    3.867934   3.395538   2.149044   1.080658   2.149122
    20  H    6.219406   7.590410   8.182383   7.585838   6.213987
    21  C    6.217552   7.402159   7.614828   6.724648   5.394659
    22  F    6.194219   7.249582   7.364693   6.472516   5.264941
    23  F    7.060937   8.317172   8.677460   7.893007   6.556711
    24  C    5.402229   6.730828   7.615172   7.397225   6.211846
    25  F    6.390408   7.752504   8.667211   8.429632   7.195713
    26  F    5.053439   6.298375   7.355710   7.385938   6.355883
    27  C    7.041502   8.151226   8.173451   7.106097   5.802319
    28  F    7.380746   8.558047   8.670897   7.652895   6.311336
    29  F    6.556583   7.523893   7.354854   6.174553   4.953856
    30  C    6.201871   7.442694   8.195694   7.885826   6.727035
    31  F    5.611945   6.724965   7.390994   7.102586   6.059469
    32  F    6.844967   8.107823   8.701921   8.186484   6.938524
    33  C    8.428316   9.489591   9.432079   8.310748   7.077449
    34  F    9.253075  10.258441  10.085810   8.877743   7.697280
    35  F    8.496879   9.453650   9.303145   8.169801   7.043332
    36  F    9.151282  10.299761  10.379550   9.342222   8.060432
    37  C    7.411204   8.602613   9.451402   9.260580   8.165149
    38  F    8.255552   9.375986  10.119913   9.866828   8.808950
    39  F    8.236378   9.497549  10.389509  10.174577   9.007920
    40  F    7.239948   8.343337   9.314532   9.320953   8.346598
                    6          7          8          9         10
     6  C    0.000000
     7  H    3.878724   0.000000
     8  H    2.159713   4.269532   0.000000
     9  H    3.406820   2.472114   4.948163   0.000000
    10  H    2.159544   4.269730   4.302398   2.457286   0.000000
    11  C    4.301463   8.180180   4.977951   7.274269   4.983267
    12  C    3.810849   7.588240   4.066661   7.020055   4.958806
    13  C    2.515796   6.206500   2.805608   5.797236   3.975071
    14  C    1.491849   5.370573   2.731208   4.661732   2.730794
    15  C    2.515683   6.206072   3.974173   5.067250   2.806312
    16  C    3.810747   7.587871   4.956392   6.422169   4.069155
    17  H    2.710827   5.944116   2.373491   5.899770   4.434519
    18  H    2.710358   5.942998   4.431568   4.558693   2.377101
    19  H    3.406906   2.471991   2.457130   4.287596   4.948226
    20  H    5.384532   9.263232   5.970756   8.317108   5.980803
    21  C    5.066031   8.640818   4.850242   8.302228   6.361727
    22  F    5.081905   8.331093   4.741189   8.145535   6.427183
    23  F    6.047625   9.718554   6.105838   9.137941   7.028987
    24  C    5.066590   8.641134   6.351320   7.219128   4.864678
    25  F    6.039812   9.707764   7.278068   8.217847   5.789155
    26  F    5.076252   8.321447   6.710556   6.602674   4.315833
    27  C    5.748145   9.167380   5.030232   9.128538   7.324029
    28  F    6.131406   9.690105   5.587337   9.507047   7.573119
    29  F    5.181082   8.295360   4.048571   8.557037   7.019279
    30  C    5.764536   9.190929   6.755354   7.971497   5.805782
    31  F    5.207577   8.333422   6.137574   7.262618   5.345352
    32  F    6.153999   9.723088   6.755750   8.762232   6.596840
    33  C    7.132755  10.386044   6.242791  10.474700   8.731110
    34  F    7.902030  11.004106   6.764636  11.280226   9.630034
    35  F    7.222150  10.199281   6.210710  10.437923   8.871061
    36  F    7.935100  11.367585   7.312003  11.233815   9.318241
    37  C    7.146066  10.406872   8.255756   9.004361   6.888061
    38  F    7.924643  11.041200   8.825775   9.805445   7.833142
    39  F    7.941820  11.378407   9.056623   9.896681   7.648139
    40  F    7.230024  10.211567   8.603040   8.591929   6.594711
                   11         12         13         14         15
    11  C    0.000000
    12  C    1.399954   0.000000
    13  C    2.412129   1.400991   0.000000
    14  C    2.809620   2.444149   1.400134   0.000000
    15  C    2.412157   2.795992   2.403753   1.400123   0.000000
    16  C    1.399940   2.435615   2.795926   2.444103   1.400987
    17  H    3.392022   2.150042   1.081380   2.144420   3.382887
    18  H    3.392110   3.877312   3.382770   2.144253   1.081435
    19  H    7.270563   6.420724   5.067053   4.661909   5.796321
    20  H    1.083108   2.151694   3.394523   3.892702   3.394243
    21  C    2.552729   1.537909   2.552486   3.851221   4.333837
    22  F    3.564211   2.328213   2.763384   4.132500   4.915714
    23  F    2.755980   2.329911   3.574162   4.725116   4.922305
    24  C    2.551971   3.845857   4.333737   3.851612   2.553139
    25  F    2.760466   4.129693   4.920344   4.719538   3.567632
    26  F    3.570280   4.713818   4.917696   4.129907   2.758101
    27  C    3.412111   2.571070   3.392585   4.630183   5.123542
    28  F    3.208667   2.907131   3.904211   4.893936   5.056844
    29  F    3.930012   2.908340   3.178906   4.325979   5.054289
    30  C    3.398429   4.631129   5.122870   4.640077   3.406666
    31  F    3.912896   4.895124   5.053617   4.341468   3.200555
    32  F    3.187989   4.333053   5.056129   4.907787   3.922301
    33  C    4.778336   3.948975   4.764511   6.080204   6.625808
    34  F    5.704044   4.955933   5.682212   6.920845   7.453312
    35  F    5.460653   4.393331   4.957929   6.342335   7.101942
    36  F    4.966218   4.393704   5.454247   6.745082   7.105016
    37  C    4.768253   6.080591   6.625169   6.087755   4.774575
    38  F    5.689073   6.924859   7.452859   6.933536   5.698140
    39  F    4.959790   6.343646   7.104040   6.748673   5.459124
    40  F    5.455222   6.740840   7.101612   6.346696   4.963657
                   16         17         18         19         20
    16  C    0.000000
    17  H    3.877268   0.000000
    18  H    2.150246   4.274284   0.000000
    19  H    7.018081   4.557448   5.896983   0.000000
    20  H    2.151209   4.287969   4.287604   8.309847   0.000000
    21  C    3.846369   2.740654   5.415079   7.209355   2.743915
    22  F    4.708194   2.489780   5.968985   6.890433   3.904996
    23  F    4.127261   3.913146   5.976582   8.446213   2.479231
    24  C    1.537904   5.415105   2.741903   8.294271   2.741903
    25  F    2.328065   5.971358   3.909174   9.325202   2.489463
    26  F    2.328785   5.967893   2.485874   8.365039   3.912890
    27  C    4.641915   3.443446   6.163153   7.419956   3.472659
    28  F    4.349482   4.250452   6.025600   8.021802   3.035094
    29  F    4.909617   2.988841   6.022083   6.359150   4.285623
    30  C    2.572047   6.169201   3.456214   8.691874   3.448114
    31  F    2.909444   6.031483   3.009468   7.870975   4.257074
    32  F    2.908827   6.034844   4.265552   8.888484   2.995480
    33  C    6.089066   4.623117   7.680256   8.515917   4.645132
    34  F    6.937948   5.515287   8.463361   8.965890   5.548591
    35  F    6.745431   4.550740   8.163186   8.297956   5.478442
    36  F    6.349184   5.466756   8.167050   9.636750   4.564761
    37  C    3.949456   7.685053   4.632835  10.093064   4.626087
    38  F    4.957079   8.471981   5.530326  10.621844   5.520347
    39  F    4.393499   8.169052   5.471684  11.023680   4.552233
    40  F    4.393433   8.165895   4.556873  10.217397   5.468079
                   21         22         23         24         25
    21  C    0.000000
    22  F    1.336838   0.000000
    23  F    1.336831   2.124305   0.000000
    24  C    5.102379   6.072322   5.108686   0.000000
    25  F    5.114825   6.106758   4.770996   1.336821   0.000000
    26  F    6.080466   6.886090   6.118551   1.337064   2.124207
    27  C    1.556970   2.394274   2.394512   5.805079   5.923797
    28  F    2.374971   3.539630   2.829630   5.248119   5.353268
    29  F    2.375326   2.827357   3.540166   6.196750   6.578466
    30  C    5.788988   6.906994   5.889583   1.556952   2.394618
    31  F    6.174647   7.205792   6.541349   2.375139   3.539983
    32  F    5.222246   6.461877   5.296738   2.375021   2.828583
    33  C    2.577030   2.943372   2.941535   7.185101   7.131130
    34  F    3.753715   4.175529   4.174717   7.965279   7.986669
    35  F    2.966581   2.696104   3.434984   7.979610   7.949413
    36  F    2.967347   3.438890   2.695010   7.266145   6.967048
    37  C    7.172042   8.313404   7.099839   2.576802   2.942609
    38  F    7.943627   9.144912   7.940358   3.753713   4.175396
    39  F    7.258294   8.424108   6.939404   2.966611   2.695564
    40  F    7.972814   9.008750   7.933003   2.966448   3.436826
                   26         27         28         29         30
    26  F    0.000000
    27  C    6.922728   0.000000
    28  F    6.484978   1.339624   0.000000
    29  F    7.219643   1.339925   2.132703   0.000000
    30  C    2.394890   6.111257   5.279481   6.402454   0.000000
    31  F    2.828971   6.383035   5.625941   6.393567   1.339606
    32  F    3.540183   5.278222   4.266328   5.656518   1.339625
    33  C    8.329304   1.549872   2.364386   2.364253   7.491419
    34  F    9.164639   2.386504   2.765117   2.764342   8.039594
    35  F    9.019043   2.397835   3.536547   2.817970   8.447193
    36  F    8.441627   2.398301   2.818889   3.536794   7.629373
    37  C    2.942595   7.497913   6.572858   7.876278   1.549853
    38  F    4.175438   8.035843   6.981213   8.334253   2.386732
    39  F    3.436642   7.651404   6.703302   8.238991   2.398117
    40  F    2.695245   8.453526   7.643446   8.762523   2.397911
                   31         32         33         34         35
    31  F    0.000000
    32  F    2.132659   0.000000
    33  C    7.851368   6.560960   0.000000
    34  F    8.311722   6.985825   1.334728   0.000000
    35  F    8.745399   7.632776   1.334642   2.145006   0.000000
    36  F    8.200063   6.665521   1.334473   2.145125   2.140238
    37  C    2.363922   2.364292   8.798194   9.311942   9.812390
    38  F    2.764676   2.765112   9.298886   9.639426  10.394693
    39  F    3.536386   2.818648   8.813809   9.377688   9.857030
    40  F    2.817818   3.536510   9.814995  10.405871  10.744009
                   36         37         38         39         40
    36  F    0.000000
    37  C    8.797861   0.000000
    38  F    9.341969   1.334742   0.000000
    39  F    8.611122   1.334568   2.145121   0.000000
    40  F    9.850500   1.334561   2.145076   2.140063   0.000000
 Stoichiometry    C18H8F14
 Framework group  C1[X(C18H8F14)]
 Deg. of freedom   114
 Full point group                 C1      NOp   1
 Largest Abelian subgroup         C1      NOp   1
 Largest concise Abelian subgroup C1      NOp   1
                         Standard orientation:                         
 ---------------------------------------------------------------------
 Center     Atomic      Atomic             Coordinates (Angstroms)
 Number     Number       Type             X           Y           Z
 ---------------------------------------------------------------------
      1          6           0        0.940187    4.460341   -0.609105
      2          6           0        0.937834    5.827317   -0.342249
      3          6           0       -0.004146    6.356383    0.535512
      4          6           0       -0.942365    5.529248    1.146566
      5          6           0       -0.937276    4.163186    0.875788
      6          6           0        0.003355    3.611142   -0.004553
      7          1           0       -0.007081    7.416901    0.744170
      8          1           0       -1.661982    3.530934    1.368247
      9          1           0        1.661673    6.474034   -0.817115
     10          1           0        1.667990    4.065304   -1.303152
     11          6           0        0.015740   -0.611575   -0.823753
     12          6           0       -1.203945    0.066365   -0.711344
     13          6           0       -1.192060    1.441621   -0.444316
     14          6           0        0.007635    2.147316   -0.292319
     15          6           0        1.211505    1.442923   -0.414260
     16          6           0        1.231482    0.067733   -0.681126
     17          1           0       -2.128749    1.975837   -0.363013
     18          1           0        2.144746    1.972827   -0.280971
     19          1           0       -1.669006    5.944200    1.830399
     20          1           0        0.019193   -1.676758   -1.019957
     21          6           0       -2.535592   -0.688949   -0.857565
     22          9           0       -3.415186    0.134383   -1.436854
     23          9           0       -2.355079   -1.682412   -1.733673
     24          6           0        2.566345   -0.688135   -0.790449
     25          9           0        2.415706   -1.662061   -1.693703
     26          9           0        3.469891    0.143657   -1.319094
     27          6           0       -3.067021   -1.221426    0.505595
     28          9           0       -2.155764   -2.026430    1.067886
     29          9           0       -3.223783   -0.204261    1.363616
     30          6           0        3.043705   -1.251375    0.580313
     31          9           0        3.168780   -0.253783    1.465587
     32          9           0        2.110323   -2.066561    1.089102
     33          6           0       -4.408456   -1.982212    0.351127
     34          9           0       -4.852188   -2.432098    1.526799
     35          9           0       -5.371012   -1.210881   -0.158580
     36          9           0       -4.300380   -3.040237   -0.454926
     37          6           0        4.389002   -2.011633    0.461024
     38          9           0        4.786376   -2.488847    1.642504
     39          9           0        4.310337   -3.051240   -0.372104
     40          9           0        5.371717   -1.231773    0.005894
 ---------------------------------------------------------------------
 Rotational constants (GHZ):           0.1367873           0.0937352           0.0625473
 Standard basis: def2TZVP (5D, 7F)
 There are  1200 symmetry adapted cartesian basis functions of A   symmetry.
 There are  1040 symmetry adapted basis functions of A   symmetry.
  1040 basis functions,  1696 primitive gaussians,  1200 cartesian basis functions
   121 alpha electrons      121 beta electrons
       nuclear repulsion energy      3635.6513996632 Hartrees.
 NAtoms=   40 NActive=   40 NUniq=   40 SFac= 1.00D+00 NAtFMM=   60 NAOKFM=F Big=F
 Integral buffers will be    131072 words long.
 Raffenetti 2 integral format.
 Two-electron integral symmetry is turned on.
 One-electron integrals computed using PRISM.
   1 Symmetry operations used in ECPInt.
 ECPInt:  NShTT=   73920 NPrTT=  237744 LenC2=   55117 LenP2D=  117501.
 LDataN:  DoStor=T MaxTD1= 6 Len=  172
 Number of processors reduced to  24 by ecpmxn.
 NBasis=  1040 RedAO= T EigKep=  5.66D-06  NBF=  1040
 NBsUse=  1040 1.00D-06 EigRej= -1.00D+00 NBFU=  1040
 ExpMin= 9.52D-02 ExpMax= 3.55D+04 ExpMxC= 1.21D+03 IAcc=3 IRadAn=         5 AccDes= 0.00D+00
 Harris functional with IExCor= 1009 and IRadAn=       5 diagonalized for initial guess.
 HarFok:  IExCor= 1009 AccDes= 0.00D+00 IRadAn=         5 IDoV= 1 UseB2=F ITyADJ=14
 ICtDFT=  3500011 ScaDFX=  1.000000  1.000000  1.000000  1.000000
 FoFCou: FMM=F IPFlag=           0 FMFlag=      100000 FMFlg1=           0
         NFxFlg=           0 DoJE=T BraDBF=F KetDBF=T FulRan=T
         wScrn=  0.000000 ICntrl=       500 IOpCl=  0 I1Cent=   200000004 NGrid=           0
         NMat0=    1 NMatS0=      1 NMatT0=    0 NMatD0=    1 NMtDS0=    0 NMtDT0=    0
 Petite list used in FoFCou.
 Requested convergence on RMS density matrix=1.00D-08 within 128 cycles.
 Requested convergence on MAX density matrix=1.00D-06.
 Requested convergence on             energy=1.00D-06.
 No special actions if energy rises.
 Integral accuracy reduced to 1.0D-05 until final iterations.
 Rare condition: small coef for last iteration:  0.000D+00
 EnCoef did   100 forward-backward iterations
 Initial convergence to 1.0D-05 achieved.  Increase integral accuracy.
 SCF Done:  E(RM062X) =  -2088.69892415     A.U. after   17 cycles
            NFock= 17  Conv=0.44D-08     -V/T= 2.0041

 **********************************************************************

            Population analysis using the SCF Density.

 **********************************************************************

 Orbital symmetries:
       Occupied  (A) (A) (A) (A) (A) (A) (A) (A) (A) (A) (A) (A)
                 (A) (A) (A) (A) (A) (A) (A) (A) (A) (A) (A) (A)
                 (A) (A) (A) (A) (A) (A) (A) (A) (A) (A) (A) (A)
                 (A) (A) (A) (A) (A) (A) (A) (A) (A) (A) (A) (A)
                 (A) (A) (A) (A) (A) (A) (A) (A) (A) (A) (A) (A)
                 (A) (A) (A) (A) (A) (A) (A) (A) (A) (A) (A) (A)
                 (A) (A) (A) (A) (A) (A) (A) (A) (A) (A) (A) (A)
                 (A) (A) (A) (A) (A) (A) (A) (A) (A) (A) (A) (A)
                 (A) (A) (A) (A) (A) (A) (A) (A) (A) (A) (A) (A)
                 (A) (A) (A) (A) (A) (A) (A) (A) (A) (A) (A) (A)
                 (A)
       Virtual   (A) (A) (A) (A) (A) (A) (A) (A) (A) (A) (A) (A)
                 (A) (A) (A) (A) (A) (A) (A) (A) (A) (A) (A) (A)
                 (A) (A) (A) (A) (A) (A) (A) (A) (A) (A) (A) (A)
                 (A) (A) (A) (A) (A) (A) (A) (A) (A) (A) (A) (A)
                 (A) (A) (A) (A) (A) (A) (A) (A) (A) (A) (A) (A)
                 (A) (A) (A) (A) (A) (A) (A) (A) (A) (A) (A) (A)
                 (A) (A) (A) (A) (A) (A) (A) (A) (A) (A) (A) (A)
                 (A) (A) (A) (A) (A) (A) (A) (A) (A) (A) (A) (A)
                 (A) (A) (A) (A) (A) (A) (A) (A) (A) (A) (A) (A)
                 (A) (A) (A) (A) (A) (A) (A) (A) (A) (A) (A) (A)
                 (A) (A) (A) (A) (A) (A) (A) (A) (A) (A) (A) (A)
                 (A) (A) (A) (A) (A) (A) (A) (A) (A) (A) (A) (A)
                 (A) (A) (A) (A) (A) (A) (A) (A) (A) (A) (A) (A)
                 (A) (A) (A) (A) (A) (A) (A) (A) (A) (A) (A) (A)
                 (A) (A) (A) (A) (A) (A) (A) (A) (A) (A) (A) (A)
                 (A) (A) (A) (A) (A) (A) (A) (A) (A) (A) (A) (A)
                 (A) (A) (A) (A) (A) (A) (A) (A) (A) (A) (A) (A)
                 (A) (A) (A) (A) (A) (A) (A) (A) (A) (A) (A) (A)
                 (A) (A) (A) (A) (A) (A) (A) (A) (A) (A) (A) (A)
                 (A) (A) (A) (A) (A) (A) (A) (A) (A) (A) (A) (A)
                 (A) (A) (A) (A) (A) (A) (A) (A) (A) (A) (A) (A)
                 (A) (A) (A) (A) (A) (A) (A) (A) (A) (A) (A) (A)
                 (A) (A) (A) (A) (A) (A) (A) (A) (A) (A) (A) (A)
                 (A) (A) (A) (A) (A) (A) (A) (A) (A) (A) (A) (A)
                 (A) (A) (A) (A) (A) (A) (A) (A) (A) (A) (A) (A)
                 (A) (A) (A) (A) (A) (A) (A) (A) (A) (A) (A) (A)
                 (A) (A) (A) (A) (A) (A) (A) (A) (A) (A) (A) (A)
                 (A) (A) (A) (A) (A) (A) (A) (A) (A) (A) (A) (A)
                 (A) (A) (A) (A) (A) (A) (A) (A) (A) (A) (A) (A)
                 (A) (A) (A) (A) (A) (A) (A) (A) (A) (A) (A) (A)
                 (A) (A) (A) (A) (A) (A) (A) (A) (A) (A) (A) (A)
                 (A) (A) (A) (A) (A) (A) (A) (A) (A) (A) (A) (A)
                 (A) (A) (A) (A) (A) (A) (A) (A) (A) (A) (A) (A)
                 (A) (A) (A) (A) (A) (A) (A) (A) (A) (A) (A) (A)
                 (A) (A) (A) (A) (A) (A) (A) (A) (A) (A) (A) (A)
                 (A) (A) (A) (A) (A) (A) (A) (A) (A) (A) (A) (A)
                 (A) (A) (A) (A) (A) (A) (A) (A) (A) (A) (A) (A)
                 (A) (A) (A) (A) (A) (A) (A) (A) (A) (A) (A) (A)
                 (A) (A) (A) (A) (A) (A) (A) (A) (A) (A) (A) (A)
                 (A) (A) (A) (A) (A) (A) (A) (A) (A) (A) (A) (A)
                 (A) (A) (A) (A) (A) (A) (A) (A) (A) (A) (A) (A)
                 (A) (A) (A) (A) (A) (A) (A) (A) (A) (A) (A) (A)
                 (A) (A) (A) (A) (A) (A) (A) (A) (A) (A) (A) (A)
                 (A) (A) (A) (A) (A) (A) (A) (A) (A) (A) (A) (A)
                 (A) (A) (A) (A) (A) (A) (A) (A) (A) (A) (A) (A)
                 (A) (A) (A) (A) (A) (A) (A) (A) (A) (A) (A) (A)
                 (A) (A) (A) (A) (A) (A) (A) (A) (A) (A) (A) (A)
                 (A) (A) (A) (A) (A) (A) (A) (A) (A) (A) (A) (A)
                 (A) (A) (A) (A) (A) (A) (A) (A) (A) (A) (A) (A)
                 (A) (A) (A) (A) (A) (A) (A) (A) (A) (A) (A) (A)
                 (A) (A) (A) (A) (A) (A) (A) (A) (A) (A) (A) (A)
                 (A) (A) (A) (A) (A) (A) (A) (A) (A) (A) (A) (A)
                 (A) (A) (A) (A) (A) (A) (A) (A) (A) (A) (A) (A)
                 (A) (A) (A) (A) (A) (A) (A) (A) (A) (A) (A) (A)
                 (A) (A) (A) (A) (A) (A) (A) (A) (A) (A) (A) (A)
                 (A) (A) (A) (A) (A) (A) (A) (A) (A) (A) (A) (A)
                 (A) (A) (A) (A) (A) (A) (A) (A) (A) (A) (A) (A)
                 (A) (A) (A) (A) (A) (A) (A) (A) (A) (A) (A) (A)
                 (A) (A) (A) (A) (A) (A) (A) (A) (A) (A) (A) (A)
                 (A) (A) (A) (A) (A) (A) (A) (A) (A) (A) (A) (A)
                 (A) (A) (A) (A) (A) (A) (A) (A) (A) (A) (A) (A)
                 (A) (A) (A) (A) (A) (A) (A) (A) (A) (A) (A) (A)
                 (A) (A) (A) (A) (A) (A) (A) (A) (A) (A) (A) (A)
                 (A) (A) (A) (A) (A) (A) (A) (A) (A) (A) (A) (A)
                 (A) (A) (A) (A) (A) (A) (A) (A) (A) (A) (A) (A)
                 (A) (A) (A) (A) (A) (A) (A) (A) (A) (A) (A) (A)
                 (A) (A) (A) (A) (A) (A) (A) (A) (A) (A) (A) (A)
                 (A) (A) (A) (A) (A) (A) (A) (A) (A) (A) (A) (A)
                 (A) (A) (A) (A) (A) (A) (A) (A) (A) (A) (A) (A)
                 (A) (A) (A) (A) (A) (A) (A) (A) (A) (A) (A) (A)
                 (A) (A) (A) (A) (A) (A) (A) (A) (A) (A) (A) (A)
                 (A) (A) (A) (A) (A) (A) (A) (A) (A) (A) (A) (A)
                 (A) (A) (A) (A) (A) (A) (A) (A) (A) (A) (A) (A)
                 (A) (A) (A) (A) (A) (A) (A) (A) (A) (A) (A) (A)
                 (A) (A) (A) (A) (A) (A) (A) (A) (A) (A) (A) (A)
                 (A) (A) (A) (A) (A) (A) (A) (A) (A) (A) (A) (A)
                 (A) (A) (A) (A) (A) (A) (A)
 The electronic state is 1-A.
 Alpha  occ. eigenvalues --  -25.31363 -25.31256 -25.31237 -25.31216 -25.30735
 Alpha  occ. eigenvalues --  -25.30710 -25.30698 -25.30670 -25.30625 -25.30575
 Alpha  occ. eigenvalues --  -25.29668 -25.29631 -25.29611 -25.29603 -10.83319
 Alpha  occ. eigenvalues --  -10.83270 -10.77842 -10.77786 -10.76291 -10.76285
 Alpha  occ. eigenvalues --  -10.59677 -10.59675 -10.58917 -10.58753 -10.58356
 Alpha  occ. eigenvalues --  -10.58347 -10.57567 -10.56153 -10.56147 -10.55892
 Alpha  occ. eigenvalues --  -10.55871 -10.55724  -1.50252  -1.50207  -1.47170
 Alpha  occ. eigenvalues --   -1.47113  -1.45634  -1.45628  -1.40845  -1.40789
 Alpha  occ. eigenvalues --   -1.40186  -1.40140  -1.39835  -1.39779  -1.38803
 Alpha  occ. eigenvalues --   -1.38798  -1.01334  -0.98020  -0.95304  -0.94430
 Alpha  occ. eigenvalues --   -0.91227  -0.91169  -0.86202  -0.85870  -0.84054
 Alpha  occ. eigenvalues --   -0.83975  -0.80032  -0.79899  -0.75315  -0.75163
 Alpha  occ. eigenvalues --   -0.74406  -0.74316  -0.73584  -0.73077  -0.72981
 Alpha  occ. eigenvalues --   -0.72572  -0.70909  -0.70772  -0.70542  -0.70253
 Alpha  occ. eigenvalues --   -0.69848  -0.69782  -0.67398  -0.67364  -0.66003
 Alpha  occ. eigenvalues --   -0.63284  -0.62040  -0.61780  -0.61162  -0.61070
 Alpha  occ. eigenvalues --   -0.60990  -0.60456  -0.60369  -0.59733  -0.59691
 Alpha  occ. eigenvalues --   -0.59609  -0.58927  -0.58645  -0.58064  -0.57437
 Alpha  occ. eigenvalues --   -0.56674  -0.55962  -0.55737  -0.55594  -0.55411
 Alpha  occ. eigenvalues --   -0.55079  -0.54777  -0.54684  -0.54081  -0.53796
 Alpha  occ. eigenvalues --   -0.53713  -0.53677  -0.53591  -0.53312  -0.52555
 Alpha  occ. eigenvalues --   -0.51859  -0.50862  -0.50703  -0.50431  -0.47839
 Alpha  occ. eigenvalues --   -0.47272  -0.46430  -0.45417  -0.44233  -0.42694
 Alpha  occ. eigenvalues --   -0.41641  -0.41605  -0.36257  -0.34933  -0.32623
 Alpha  occ. eigenvalues --   -0.30558
 Alpha virt. eigenvalues --   -0.03457  -0.03017   0.00258   0.02119   0.06242
 Alpha virt. eigenvalues --    0.06752   0.06944   0.08020   0.08760   0.09317
 Alpha virt. eigenvalues --    0.10392   0.10979   0.11172   0.11545   0.12598
 Alpha virt. eigenvalues --    0.12783   0.13894   0.14448   0.14569   0.15487
 Alpha virt. eigenvalues --    0.16062   0.16243   0.16478   0.17810   0.18620
 Alpha virt. eigenvalues --    0.19244   0.19614   0.20026   0.21089   0.21580
 Alpha virt. eigenvalues --    0.21880   0.22505   0.22638   0.22992   0.23348
 Alpha virt. eigenvalues --    0.23857   0.24232   0.24402   0.24791   0.24953
 Alpha virt. eigenvalues --    0.25198   0.25544   0.25600   0.26010   0.26204
 Alpha virt. eigenvalues --    0.26592   0.26992   0.27215   0.27422   0.28101
 Alpha virt. eigenvalues --    0.28718   0.29103   0.29186   0.29333   0.29405
 Alpha virt. eigenvalues --    0.30087   0.30814   0.31093   0.31527   0.32101
 Alpha virt. eigenvalues --    0.32324   0.32417   0.32847   0.33174   0.33327
 Alpha virt. eigenvalues --    0.33586   0.33923   0.34522   0.34655   0.35205
 Alpha virt. eigenvalues --    0.35385   0.35764   0.36522   0.37402   0.37509
 Alpha virt. eigenvalues --    0.37966   0.38028   0.39081   0.40286   0.40639
 Alpha virt. eigenvalues --    0.41037   0.41216   0.42033   0.42168   0.42463
 Alpha virt. eigenvalues --    0.42822   0.43782   0.44157   0.44449   0.45092
 Alpha virt. eigenvalues --    0.45171   0.45595   0.45808   0.46531   0.47022
 Alpha virt. eigenvalues --    0.47513   0.48154   0.48997   0.49217   0.49830
 Alpha virt. eigenvalues --    0.50449   0.51565   0.51674   0.51856   0.53169
 Alpha virt. eigenvalues --    0.53497   0.53682   0.53976   0.54643   0.55526
 Alpha virt. eigenvalues --    0.55792   0.57135   0.57496   0.57690   0.59056
 Alpha virt. eigenvalues --    0.59342   0.60220   0.60762   0.61257   0.61817
 Alpha virt. eigenvalues --    0.62820   0.63170   0.63718   0.64043   0.65049
 Alpha virt. eigenvalues --    0.65606   0.66468   0.66868   0.67381   0.67915
 Alpha virt. eigenvalues --    0.68177   0.69059   0.69521   0.69820   0.70620
 Alpha virt. eigenvalues --    0.71127   0.71731   0.72177   0.72545   0.72928
 Alpha virt. eigenvalues --    0.73239   0.74389   0.74746   0.75084   0.75322
 Alpha virt. eigenvalues --    0.75882   0.76011   0.76104   0.76255   0.76933
 Alpha virt. eigenvalues --    0.77392   0.77589   0.78531   0.79185   0.79334
 Alpha virt. eigenvalues --    0.79632   0.79699   0.80450   0.81071   0.81385
 Alpha virt. eigenvalues --    0.82094   0.82479   0.82645   0.83385   0.83595
 Alpha virt. eigenvalues --    0.84256   0.84501   0.85351   0.86246   0.86346
 Alpha virt. eigenvalues --    0.87004   0.87141   0.87286   0.88054   0.88376
 Alpha virt. eigenvalues --    0.89261   0.89980   0.90112   0.91206   0.91433
 Alpha virt. eigenvalues --    0.91877   0.92231   0.92772   0.93095   0.93768
 Alpha virt. eigenvalues --    0.93953   0.94979   0.95398   0.96166   0.96404
 Alpha virt. eigenvalues --    0.97068   0.97878   0.98399   0.98834   0.99281
 Alpha virt. eigenvalues --    1.00535   1.01489   1.01641   1.02267   1.02560
 Alpha virt. eigenvalues --    1.02725   1.03887   1.04387   1.05079   1.05486
 Alpha virt. eigenvalues --    1.06033   1.06548   1.07307   1.07747   1.09288
 Alpha virt. eigenvalues --    1.10015   1.10409   1.11992   1.12679   1.13312
 Alpha virt. eigenvalues --    1.14469   1.14800   1.16655   1.17026   1.17245
 Alpha virt. eigenvalues --    1.17938   1.19137   1.19536   1.20238   1.20551
 Alpha virt. eigenvalues --    1.21622   1.21745   1.22239   1.22483   1.23785
 Alpha virt. eigenvalues --    1.24275   1.24867   1.25154   1.25769   1.26443
 Alpha virt. eigenvalues --    1.26827   1.27455   1.29005   1.30090   1.30493
 Alpha virt. eigenvalues --    1.31087   1.31693   1.32880   1.33345   1.34063
 Alpha virt. eigenvalues --    1.34730   1.35141   1.35546   1.36244   1.37255
 Alpha virt. eigenvalues --    1.37821   1.38148   1.38883   1.39548   1.40453
 Alpha virt. eigenvalues --    1.41570   1.42118   1.42415   1.43933   1.45563
 Alpha virt. eigenvalues --    1.46994   1.47111   1.47717   1.48015   1.48704
 Alpha virt. eigenvalues --    1.49074   1.50853   1.52182   1.52732   1.53808
 Alpha virt. eigenvalues --    1.54161   1.54916   1.55873   1.56516   1.57182
 Alpha virt. eigenvalues --    1.58904   1.59346   1.60405   1.63842   1.65070
 Alpha virt. eigenvalues --    1.65514   1.66273   1.68083   1.69542   1.69979
 Alpha virt. eigenvalues --    1.70495   1.71297   1.72093   1.72720   1.73588
 Alpha virt. eigenvalues --    1.74052   1.74637   1.75208   1.75661   1.77017
 Alpha virt. eigenvalues --    1.77335   1.77788   1.78136   1.79542   1.80348
 Alpha virt. eigenvalues --    1.81721   1.82529   1.84823   1.85246   1.85461
 Alpha virt. eigenvalues --    1.86420   1.88261   1.88539   1.89159   1.89964
 Alpha virt. eigenvalues --    1.90426   1.91608   1.91990   1.92565   1.92603
 Alpha virt. eigenvalues --    1.92972   1.93655   1.96518   1.97018   1.97423
 Alpha virt. eigenvalues --    1.97522   1.97771   1.98430   1.98698   1.98811
 Alpha virt. eigenvalues --    2.00010   2.00329   2.01321   2.02417   2.02767
 Alpha virt. eigenvalues --    2.03500   2.03614   2.04105   2.05005   2.05405
 Alpha virt. eigenvalues --    2.06566   2.07601   2.08387   2.08882   2.09395
 Alpha virt. eigenvalues --    2.11009   2.12298   2.12697   2.13610   2.13998
 Alpha virt. eigenvalues --    2.15291   2.15413   2.16286   2.16878   2.17017
 Alpha virt. eigenvalues --    2.17214   2.17610   2.18218   2.18862   2.19304
 Alpha virt. eigenvalues --    2.19617   2.20812   2.22038   2.22515   2.22906
 Alpha virt. eigenvalues --    2.23037   2.23826   2.25595   2.26819   2.28522
 Alpha virt. eigenvalues --    2.29519   2.31176   2.31400   2.32358   2.32550
 Alpha virt. eigenvalues --    2.33186   2.34269   2.34888   2.35293   2.36321
 Alpha virt. eigenvalues --    2.36802   2.37394   2.37723   2.37970   2.41589
 Alpha virt. eigenvalues --    2.41782   2.42431   2.42644   2.44955   2.45164
 Alpha virt. eigenvalues --    2.45606   2.46112   2.47091   2.47394   2.48079
 Alpha virt. eigenvalues --    2.48843   2.50210   2.51092   2.51245   2.51700
 Alpha virt. eigenvalues --    2.52047   2.52386   2.52539   2.52839   2.53291
 Alpha virt. eigenvalues --    2.53839   2.54404   2.54928   2.54979   2.56256
 Alpha virt. eigenvalues --    2.57963   2.58833   2.59384   2.59697   2.61011
 Alpha virt. eigenvalues --    2.61547   2.62204   2.62293   2.62617   2.63876
 Alpha virt. eigenvalues --    2.64289   2.64770   2.65224   2.65870   2.66394
 Alpha virt. eigenvalues --    2.66735   2.67535   2.67830   2.68873   2.69330
 Alpha virt. eigenvalues --    2.69913   2.70994   2.71318   2.72357   2.73027
 Alpha virt. eigenvalues --    2.74314   2.74736   2.75426   2.75895   2.76651
 Alpha virt. eigenvalues --    2.77171   2.77896   2.79307   2.79436   2.80912
 Alpha virt. eigenvalues --    2.81467   2.81721   2.82814   2.83048   2.83828
 Alpha virt. eigenvalues --    2.84597   2.85113   2.85723   2.85781   2.86378
 Alpha virt. eigenvalues --    2.87062   2.87263   2.87773   2.88244   2.89138
 Alpha virt. eigenvalues --    2.89349   2.90082   2.91156   2.92953   2.93120
 Alpha virt. eigenvalues --    2.93534   2.94435   2.95650   2.97621   2.99268
 Alpha virt. eigenvalues --    2.99696   3.00488   3.00632   3.01570   3.01956
 Alpha virt. eigenvalues --    3.02208   3.02729   3.03445   3.03668   3.04032
 Alpha virt. eigenvalues --    3.04344   3.04797   3.05148   3.05551   3.06671
 Alpha virt. eigenvalues --    3.07299   3.07727   3.08405   3.09174   3.10575
 Alpha virt. eigenvalues --    3.10964   3.11290   3.11488   3.12478   3.13100
 Alpha virt. eigenvalues --    3.13359   3.13530   3.13833   3.14094   3.14841
 Alpha virt. eigenvalues --    3.15166   3.16682   3.17259   3.18024   3.18189
 Alpha virt. eigenvalues --    3.18610   3.19073   3.19403   3.19767   3.20117
 Alpha virt. eigenvalues --    3.20383   3.20824   3.21234   3.21314   3.21884
 Alpha virt. eigenvalues --    3.21974   3.23007   3.23711   3.24663   3.25042
 Alpha virt. eigenvalues --    3.25347   3.25705   3.26226   3.26975   3.27868
 Alpha virt. eigenvalues --    3.28810   3.29523   3.30283   3.30835   3.30925
 Alpha virt. eigenvalues --    3.31675   3.31917   3.32846   3.33298   3.33914
 Alpha virt. eigenvalues --    3.34583   3.35025   3.35735   3.36346   3.36549
 Alpha virt. eigenvalues --    3.37099   3.37407   3.37612   3.38856   3.39543
 Alpha virt. eigenvalues --    3.40164   3.40923   3.41455   3.41953   3.42398
 Alpha virt. eigenvalues --    3.42999   3.43668   3.45191   3.46610   3.47154
 Alpha virt. eigenvalues --    3.47689   3.47972   3.48646   3.49168   3.49500
 Alpha virt. eigenvalues --    3.50006   3.50537   3.51728   3.52648   3.53011
 Alpha virt. eigenvalues --    3.53764   3.55312   3.56154   3.56708   3.56837
 Alpha virt. eigenvalues --    3.57858   3.58491   3.59461   3.60437   3.60764
 Alpha virt. eigenvalues --    3.62593   3.63286   3.63985   3.64679   3.65637
 Alpha virt. eigenvalues --    3.66907   3.67505   3.68262   3.70146   3.71367
 Alpha virt. eigenvalues --    3.72139   3.73071   3.73274   3.74796   3.75442
 Alpha virt. eigenvalues --    3.76199   3.76705   3.78455   3.78705   3.79643
 Alpha virt. eigenvalues --    3.81662   3.82195   3.82466   3.83078   3.84214
 Alpha virt. eigenvalues --    3.85404   3.86055   3.88375   3.91264   3.92315
 Alpha virt. eigenvalues --    3.92473   3.93201   3.93919   3.94554   3.95002
 Alpha virt. eigenvalues --    3.95870   3.96547   3.96812   3.97348   3.97870
 Alpha virt. eigenvalues --    3.97987   3.98140   3.99070   3.99567   4.00414
 Alpha virt. eigenvalues --    4.00988   4.01199   4.02110   4.02184   4.02492
 Alpha virt. eigenvalues --    4.03535   4.03914   4.04005   4.05579   4.06083
 Alpha virt. eigenvalues --    4.06287   4.06867   4.08099   4.08642   4.09067
 Alpha virt. eigenvalues --    4.09718   4.09834   4.10585   4.10882   4.11371
 Alpha virt. eigenvalues --    4.12090   4.12930   4.13289   4.14296   4.14839
 Alpha virt. eigenvalues --    4.15472   4.16606   4.16896   4.17522   4.17728
 Alpha virt. eigenvalues --    4.18250   4.18705   4.19520   4.19713   4.20406
 Alpha virt. eigenvalues --    4.20787   4.21973   4.22536   4.23298   4.23769
 Alpha virt. eigenvalues --    4.24073   4.25050   4.27024   4.27640   4.28781
 Alpha virt. eigenvalues --    4.29721   4.30316   4.32583   4.34575   4.35353
 Alpha virt. eigenvalues --    4.38248   4.39166   4.40481   4.41388   4.43808
 Alpha virt. eigenvalues --    4.49209   4.52604   4.55118   4.59904   4.60035
 Alpha virt. eigenvalues --    4.61357   4.62334   4.63142   4.64031   4.66705
 Alpha virt. eigenvalues --    4.70021   4.71271   4.75031   4.76997   4.81222
 Alpha virt. eigenvalues --    4.81406   4.83272   4.87222   4.87446   4.96584
 Alpha virt. eigenvalues --    4.98953   5.02697   5.02788   5.09684   5.14972
 Alpha virt. eigenvalues --    5.16541   5.19127   5.19624   5.20645   5.22105
 Alpha virt. eigenvalues --    5.23585   5.25648   5.29041   5.29434   5.32173
 Alpha virt. eigenvalues --    5.32846   5.33829   5.34024   5.35321   5.39080
 Alpha virt. eigenvalues --    5.44988   5.49953   5.50271   5.51920   5.52593
 Alpha virt. eigenvalues --    5.53327   5.65574   5.66249   5.76406   6.80552
 Alpha virt. eigenvalues --    6.80594   6.84320   6.84375   6.85114   6.85173
 Alpha virt. eigenvalues --    6.85314   6.85373   6.85403   6.85441   6.85453
 Alpha virt. eigenvalues --    6.85488   6.85577   6.85622   6.85926   6.86044
 Alpha virt. eigenvalues --    6.86071   6.86114   6.86221   6.86307   6.86315
 Alpha virt. eigenvalues --    6.86368   6.86552   6.86558   6.86636   6.86711
 Alpha virt. eigenvalues --    6.87267   6.87334   6.87426   6.87613   6.87797
 Alpha virt. eigenvalues --    6.87994   6.88081   6.88144   6.89000   6.89195
 Alpha virt. eigenvalues --    6.89613   6.89616   6.89920   6.89973   6.93210
 Alpha virt. eigenvalues --    6.93679   6.96552   6.96614   6.98865   6.99124
 Alpha virt. eigenvalues --    7.00359   7.00707   7.01011   7.01029   7.01063
 Alpha virt. eigenvalues --    7.01122   7.03876   7.04266   7.04886   7.04938
 Alpha virt. eigenvalues --    7.07180   7.07239   7.07735   7.07849   7.08705
 Alpha virt. eigenvalues --    7.08798   7.10997   7.11020   7.12694   7.12747
 Alpha virt. eigenvalues --    7.17648   7.17869   7.19798   7.20152   7.26890
 Alpha virt. eigenvalues --    7.27124   7.29702   7.29742   7.33261   7.33430
 Alpha virt. eigenvalues --    7.33667   7.33778   7.34730   7.34791   7.38925
 Alpha virt. eigenvalues --    7.39103   7.40329   7.40602   7.41123   7.41163
 Alpha virt. eigenvalues --    7.42179   7.42233   7.47438   7.47489   7.52365
 Alpha virt. eigenvalues --    7.52406   7.58026   7.58205   7.59356   7.59439
 Alpha virt. eigenvalues --    7.61471   7.61535   8.27551   8.27595   8.28323
 Alpha virt. eigenvalues --    8.28431   8.29107   8.29232   8.31011   8.31059
 Alpha virt. eigenvalues --    8.32548   8.33018   8.39365   8.39741   8.40709
 Alpha virt. eigenvalues --    8.41555   8.41741   8.42237   8.43242   8.43713
 Alpha virt. eigenvalues --    8.46512   8.46658   8.47297   8.47549   8.50829
 Alpha virt. eigenvalues --    8.54203   8.54213   8.54702   8.55761   8.56359
 Alpha virt. eigenvalues --    8.65590   8.65668   8.69343   8.69402   8.72607
 Alpha virt. eigenvalues --    8.72649   8.74797   8.74892   8.78990   8.79072
 Alpha virt. eigenvalues --    8.81367   8.81986   8.86204   8.86328   8.88575
 Alpha virt. eigenvalues --    8.88896   8.91119   8.91506   8.91934   8.92435
 Alpha virt. eigenvalues --    8.93122   8.93168   8.93433   8.93738   8.93991
 Alpha virt. eigenvalues --    8.94338   8.96607   8.96649   8.98437   8.98638
 Alpha virt. eigenvalues --    9.00946   9.01141   9.03729   9.04823   9.05044
 Alpha virt. eigenvalues --    9.05274   9.08251   9.08801   9.09000   9.09305
 Alpha virt. eigenvalues --    9.11248   9.11814  22.15490  22.40711  22.66949
 Alpha virt. eigenvalues --   22.69794  22.73233  22.73991  22.80332  22.83364
 Alpha virt. eigenvalues --   22.84193  22.86463  22.88716  22.90623  22.94712
 Alpha virt. eigenvalues --   22.97022  23.07316  23.08745  23.28820  23.45069
 Alpha virt. eigenvalues --   57.34978  57.34989  57.36211  57.36749  57.47194
 Alpha virt. eigenvalues --   57.47510  57.53639  57.55966  57.57073  57.57504
 Alpha virt. eigenvalues --   57.58747  57.59400  57.68988  57.70759
          Condensed to atoms (all electrons):
               1          2          3          4          5          6
     1  C    5.027135   0.497467  -0.035670  -0.054015  -0.019567   0.484972
     2  C    0.497467   4.907353   0.514071  -0.029186  -0.055241  -0.048214
     3  C   -0.035670   0.514071   4.879633   0.511645  -0.033550  -0.047403
     4  C   -0.054015  -0.029186   0.511645   4.909563   0.493052  -0.043717
     5  C   -0.019567  -0.055241  -0.033550   0.493052   5.033802   0.481858
     6  C    0.484972  -0.048214  -0.047403  -0.043717   0.481858   5.041312
     7  H    0.004315  -0.033877   0.410082  -0.033821   0.004300   0.000892
     8  H    0.005708  -0.000858   0.003681  -0.021233   0.399020  -0.044048
     9  H   -0.030258   0.408287  -0.030119   0.003395   0.000062   0.004648
    10  H    0.396732  -0.020754   0.003077  -0.000685   0.005251  -0.039600
    11  C   -0.000024   0.000020  -0.000003   0.000038  -0.000885   0.009284
    12  C   -0.001463   0.000087  -0.000064   0.000047   0.006729   0.008110
    13  C    0.012493  -0.000586   0.000076   0.001332  -0.001294  -0.098797
    14  C   -0.083720   0.009060  -0.005325   0.008588  -0.084748   0.269363
    15  C   -0.000720   0.000926   0.000199  -0.001132   0.010216  -0.089386
    16  C    0.005365  -0.000225  -0.000030   0.000109  -0.000496   0.010900
    17  H    0.000456  -0.000156  -0.000015   0.000376   0.001237   0.001208
    18  H    0.002681   0.000627  -0.000043  -0.000115   0.000163  -0.002856
    19  H   -0.000021   0.003445  -0.030458   0.408373  -0.030340   0.005095
    20  H   -0.000007   0.000000  -0.000000   0.000000  -0.000010   0.000133
    21  C    0.000047   0.000001  -0.000001   0.000005   0.000568  -0.003185
    22  F    0.000000   0.000000  -0.000000  -0.000000  -0.000026  -0.000142
    23  F   -0.000000   0.000000  -0.000000  -0.000000   0.000000  -0.000002
    24  C    0.000460  -0.000015   0.000001  -0.000004   0.000020  -0.002689
    25  F   -0.000002  -0.000000   0.000000  -0.000000   0.000000   0.000007
    26  F   -0.000245  -0.000005   0.000000  -0.000000   0.000004   0.000349
    27  C   -0.000005  -0.000000   0.000000  -0.000001  -0.000051   0.000069
    28  F    0.000000  -0.000000   0.000000  -0.000000  -0.000003   0.000003
    29  F   -0.000000  -0.000000   0.000000  -0.000002  -0.000358   0.000002
    30  C   -0.000060  -0.000001   0.000000   0.000000   0.000006   0.000205
    31  F    0.000009   0.000002  -0.000000   0.000000  -0.000002  -0.000328
    32  F   -0.000001   0.000000  -0.000000   0.000000   0.000000  -0.000004
    33  C    0.000000  -0.000000   0.000000  -0.000000   0.000002  -0.000009
    34  F   -0.000000   0.000000  -0.000000   0.000000   0.000000  -0.000000
    35  F   -0.000000   0.000000  -0.000000   0.000000   0.000000  -0.000000
    36  F   -0.000000   0.000000  -0.000000   0.000000   0.000000   0.000000
    37  C    0.000002  -0.000000   0.000000  -0.000000   0.000000  -0.000007
    38  F   -0.000000  -0.000000   0.000000   0.000000  -0.000000  -0.000000
    39  F   -0.000000  -0.000000   0.000000   0.000000  -0.000000   0.000000
    40  F   -0.000000  -0.000000   0.000000  -0.000000   0.000000   0.000000
               7          8          9         10         11         12
     1  C    0.004315   0.005708  -0.030258   0.396732  -0.000024  -0.001463
     2  C   -0.033877  -0.000858   0.408287  -0.020754   0.000020   0.000087
     3  C    0.410082   0.003681  -0.030119   0.003077  -0.000003  -0.000064
     4  C   -0.033821  -0.021233   0.003395  -0.000685   0.000038   0.000047
     5  C    0.004300   0.399020   0.000062   0.005251  -0.000885   0.006729
     6  C    0.000892  -0.044048   0.004648  -0.039600   0.009284   0.008110
     7  H    0.508375  -0.000262  -0.003777  -0.000257  -0.000000   0.000000
     8  H   -0.000262   0.484991   0.000057  -0.000202  -0.000099   0.001059
     9  H   -0.003777   0.000057   0.500442  -0.003342  -0.000000   0.000001
    10  H   -0.000257  -0.000202  -0.003342   0.480371  -0.000332   0.000181
    11  C   -0.000000  -0.000099  -0.000000  -0.000332   5.479051   0.209288
    12  C    0.000000   0.001059   0.000001   0.000181   0.209288   5.463753
    13  C   -0.000010   0.003178   0.000031   0.000296   0.060811   0.199338
    14  C    0.000077   0.002609   0.000026   0.005184  -0.119140   0.070612
    15  C   -0.000008   0.000727   0.000036   0.001094   0.037114  -0.133470
    16  C    0.000000  -0.000045   0.000005   0.001553   0.215764   0.113219
    17  H   -0.000000  -0.001886   0.000001   0.000038   0.009418  -0.013266
    18  H   -0.000000   0.000059   0.000038  -0.002227   0.009472  -0.002559
    19  H   -0.003746  -0.003623  -0.000260   0.000054  -0.000001   0.000006
    20  H   -0.000000  -0.000002  -0.000000  -0.000002   0.375540  -0.024011
    21  C   -0.000000   0.000119   0.000000   0.000010  -0.100790   0.348759
    22  F   -0.000000  -0.000017  -0.000000  -0.000000   0.005349  -0.082703
    23  F    0.000000  -0.000000  -0.000000  -0.000000   0.017841  -0.081913
    24  C   -0.000000  -0.000001   0.000000   0.000146  -0.088038   0.011839
    25  F    0.000000  -0.000000  -0.000000   0.000001   0.017395   0.001355
    26  F    0.000000   0.000000  -0.000000   0.000275   0.004814  -0.000326
    27  C    0.000000   0.000017  -0.000000  -0.000001   0.006808  -0.063110
    28  F    0.000000   0.000006  -0.000000   0.000000   0.001276  -0.011528
    29  F   -0.000000   0.000813   0.000000   0.000000   0.005314  -0.009919
    30  C    0.000000   0.000000  -0.000000   0.000006   0.002334  -0.000460
    31  F   -0.000000  -0.000001   0.000000  -0.000006   0.005698  -0.000881
    32  F   -0.000000  -0.000000   0.000000  -0.000000   0.001068  -0.003197
    33  C   -0.000000   0.000002   0.000000   0.000000  -0.000431   0.003875
    34  F   -0.000000  -0.000000  -0.000000  -0.000000  -0.000044  -0.000261
    35  F   -0.000000  -0.000001   0.000000  -0.000000  -0.000059   0.000496
    36  F   -0.000000  -0.000000   0.000000  -0.000000  -0.000066   0.000487
    37  C    0.000000  -0.000000   0.000000  -0.000001  -0.000080  -0.000029
    38  F   -0.000000   0.000000  -0.000000   0.000000  -0.000047   0.000000
    39  F    0.000000   0.000000  -0.000000   0.000000  -0.000075  -0.000000
    40  F    0.000000   0.000000   0.000000   0.000000  -0.000068   0.000008
              13         14         15         16         17         18
     1  C    0.012493  -0.083720  -0.000720   0.005365   0.000456   0.002681
     2  C   -0.000586   0.009060   0.000926  -0.000225  -0.000156   0.000627
     3  C    0.000076  -0.005325   0.000199  -0.000030  -0.000015  -0.000043
     4  C    0.001332   0.008588  -0.001132   0.000109   0.000376  -0.000115
     5  C   -0.001294  -0.084748   0.010216  -0.000496   0.001237   0.000163
     6  C   -0.098797   0.269363  -0.089386   0.010900   0.001208  -0.002856
     7  H   -0.000010   0.000077  -0.000008   0.000000  -0.000000  -0.000000
     8  H    0.003178   0.002609   0.000727  -0.000045  -0.001886   0.000059
     9  H    0.000031   0.000026   0.000036   0.000005   0.000001   0.000038
    10  H    0.000296   0.005184   0.001094   0.001553   0.000038  -0.002227
    11  C    0.060811  -0.119140   0.037114   0.215764   0.009418   0.009472
    12  C    0.199338   0.070612  -0.133470   0.113219  -0.013266  -0.002559
    13  C    5.465146   0.327326   0.057208  -0.148648   0.372603   0.008307
    14  C    0.327326   5.109587   0.345453   0.066103  -0.029356  -0.023391
    15  C    0.057208   0.345453   5.436358   0.205788   0.007473   0.365139
    16  C   -0.148648   0.066103   0.205788   5.464439  -0.002370  -0.010677
    17  H    0.372603  -0.029356   0.007473  -0.002370   0.441510  -0.000079
    18  H    0.008307  -0.023391   0.365139  -0.010677  -0.000079   0.442054
    19  H    0.000038   0.000062   0.000024   0.000002   0.000031   0.000001
    20  H    0.011342  -0.002982   0.012211  -0.025199  -0.000132  -0.000139
    21  C   -0.090973   0.010950   0.002604   0.017468   0.000295   0.000003
    22  F    0.016666   0.000510   0.000175  -0.000414   0.007856  -0.000000
    23  F    0.004283  -0.000374   0.000180   0.001360   0.000331  -0.000000
    24  C    0.007190   0.005545  -0.085244   0.342437   0.000043   0.002179
    25  F    0.000059  -0.000353   0.004938  -0.080891  -0.000000   0.000348
    26  F   -0.000065   0.001316   0.016981  -0.079784  -0.000001   0.006849
    27  C    0.006151  -0.000791   0.000676  -0.001793  -0.001849   0.000007
    28  F    0.005838  -0.000910   0.000551  -0.003030   0.000154   0.000001
    29  F   -0.000890  -0.002050   0.000476  -0.000857   0.002160   0.000001
    30  C   -0.000114  -0.000321   0.004748  -0.059131   0.000001  -0.002482
    31  F    0.000524  -0.002737   0.001058  -0.011825   0.000002   0.003100
    32  F    0.000540  -0.000900   0.005517  -0.011506   0.000002   0.000172
    33  C   -0.000300   0.000005   0.000009   0.000039  -0.000047  -0.000000
    34  F   -0.000040   0.000000  -0.000000   0.000000  -0.000001   0.000000
    35  F   -0.000077  -0.000000  -0.000001   0.000007   0.000035  -0.000000
    36  F   -0.000062   0.000006  -0.000001  -0.000000   0.000001  -0.000000
    37  C    0.000048  -0.000058  -0.000178   0.003681   0.000000   0.000025
    38  F   -0.000000   0.000000  -0.000045  -0.000252  -0.000000  -0.000002
    39  F   -0.000001   0.000007  -0.000072   0.000524  -0.000000   0.000000
    40  F   -0.000001  -0.000002  -0.000095   0.000603  -0.000000   0.000026
              19         20         21         22         23         24
     1  C   -0.000021  -0.000007   0.000047   0.000000  -0.000000   0.000460
     2  C    0.003445   0.000000   0.000001   0.000000   0.000000  -0.000015
     3  C   -0.030458  -0.000000  -0.000001  -0.000000  -0.000000   0.000001
     4  C    0.408373   0.000000   0.000005  -0.000000  -0.000000  -0.000004
     5  C   -0.030340  -0.000010   0.000568  -0.000026   0.000000   0.000020
     6  C    0.005095   0.000133  -0.003185  -0.000142  -0.000002  -0.002689
     7  H   -0.003746  -0.000000  -0.000000  -0.000000   0.000000  -0.000000
     8  H   -0.003623  -0.000002   0.000119  -0.000017  -0.000000  -0.000001
     9  H   -0.000260  -0.000000   0.000000  -0.000000  -0.000000   0.000000
    10  H    0.000054  -0.000002   0.000010  -0.000000  -0.000000   0.000146
    11  C   -0.000001   0.375540  -0.100790   0.005349   0.017841  -0.088038
    12  C    0.000006  -0.024011   0.348759  -0.082703  -0.081913   0.011839
    13  C    0.000038   0.011342  -0.090973   0.016666   0.004283   0.007190
    14  C    0.000062  -0.002982   0.010950   0.000510  -0.000374   0.005545
    15  C    0.000024   0.012211   0.002604   0.000175   0.000180  -0.085244
    16  C    0.000002  -0.025199   0.017468  -0.000414   0.001360   0.342437
    17  H    0.000031  -0.000132   0.000295   0.007856   0.000331   0.000043
    18  H    0.000001  -0.000139   0.000003  -0.000000  -0.000000   0.002179
    19  H    0.500516  -0.000000   0.000001   0.000000  -0.000000   0.000000
    20  H   -0.000000   0.439490  -0.002350   0.000316   0.006984  -0.000876
    21  C    0.000001  -0.002350   4.752664   0.290323   0.289167  -0.001334
    22  F    0.000000   0.000316   0.290323   8.994833  -0.049031  -0.000001
    23  F   -0.000000   0.006984   0.289167  -0.049031   8.993949  -0.000063
    24  C    0.000000  -0.000876  -0.001334  -0.000001  -0.000063   4.745614
    25  F   -0.000000   0.006871  -0.000047  -0.000000   0.000000   0.288025
    26  F   -0.000000   0.000316  -0.000002  -0.000000  -0.000000   0.286469
    27  C   -0.000000  -0.001208   0.291730  -0.014430  -0.013887   0.000034
    28  F   -0.000000   0.002552  -0.015557   0.000841  -0.000608  -0.000251
    29  F   -0.000001   0.000135  -0.015522  -0.000644   0.000843  -0.000005
    30  C   -0.000000  -0.001663   0.000046  -0.000000  -0.000008   0.293331
    31  F    0.000000   0.000153  -0.000004   0.000000   0.000000  -0.015806
    32  F    0.000000   0.002849  -0.000263   0.000000   0.000000  -0.014640
    33  C    0.000000  -0.000048  -0.015136   0.000813   0.000802  -0.000005
[...]
 172,0.00005721,0.00008214,0.00000232,-0.01078393,-0.02099847,-0.006557
 55,0.00350804,0.00325160,0.00006971,0.00071823,-0.00085486,-0.00620556
 ,-0.00005463,-0.00013441,-0.00011520,0.00003503,0.00014926,0.00004383,
 0.00004148,0.00005717,0.00005818,-0.03045945,-0.25920599,-0.10684707,0
 .01894033,-0.08065168,0.00039825,-0.04486602,-0.03148514,-0.00945411,0
 .06107677,0.39188731,-0.00004271,-0.00005569,-0.00001447,-0.00000598,-
 0.00000953,0.00000006,-0.00001633,-0.00002966,-0.00002493,0.00000183,0
 .00003875,-0.00004607,0.00000761,-0.00005085,0.00003244,0.00005268,0.0
 0006892,0.00000965,-0.00000826,-0.00000850,-0.00001427,0.00001364,0.00
 005621,0.00001463,-0.00000319,-0.00000412,-0.00002112,0.00001156,0.000
 00192,0.00001999,-0.00015892,-0.00016860,-0.00013014,-0.00043344,0.000
 36594,-0.00004152,0.00008486,0.00010817,-0.00005794,0.00014845,0.00013
 499,0.00007708,-0.00001505,-0.00007389,-0.00013785,0.00012351,0.000029
 96,-0.00002931,0.00011213,0.00002361,0.00011666,0.00000347,-0.00000137
 ,-0.00000626,-0.00000384,-0.00000871,0.00000709,-0.00005376,-0.0000693
 9,0.00000619,0.00221720,-0.00198017,0.00192860,-0.00085030,0.00039899,
 -0.00026735,-0.00166708,0.00488807,-0.00688170,-0.00034193,-0.00043941
 ,0.00014026,0.00011191,0.00023318,0.00002462,0.00010537,0.00011745,-0.
 00015750,-0.01195397,-0.03863256,-0.00283709,0.00289099,0.00159871,-0.
 00059655,0.00158177,-0.00700913,-0.01252584,-0.00014885,0.00000776,-0.
 00000299,0.00009430,0.00005485,-0.00001278,0.00009962,0.00004209,-0.00
 002267,-0.01249609,-0.09811616,-0.14575662,0.00157894,0.01544785,0.021
 38882,-0.00995072,-0.00329013,0.01557066,0.02888817,0.12639098,0.13022
 794,0.00014921,0.00006176,0.00005823,-0.00002338,0.00008254,-0.0000776
 5,0.00006200,0.00010192,0.00008424,0.00003433,-0.00001749,0.00004833,0
 .00002203,0.00010419,0.00023818,-0.00006991,-0.00015760,-0.00030187,0.
 00002391,0.00003560,0.00002483,-0.00001275,-0.00009338,0.00000569,0.00
 001798,0.00000090,0.00004589,-0.00008366,0.00002621,-0.00010947,0.0003
 4499,0.00045172,0.00031380,0.00004380,0.00004030,-0.00025069,0.0003346
 5,0.00042908,0.00008164,-0.00014092,-0.00032390,-0.00051158,0.00031481
 ,0.00000079,-0.00051903,0.00028484,-0.00045199,0.00018534,0.00003865,0
 .00000252,-0.00000384,-0.00028222,-0.00026693,-0.00018188,0.00003296,0
 .00005738,0.00000396,-0.00018908,0.00002979,0.00035355,-0.00056135,0.0
 0015073,0.00137636,0.00050240,0.00008798,-0.00047828,0.00010001,-0.000
 17446,-0.00049039,-0.02821905,-0.00603914,0.00694422,0.00325885,-0.001
 72710,-0.00159546,0.00402707,0.00003256,0.00076320,0.00020854,-0.00046
 323,0.00030992,-0.00001857,0.00012526,-0.00030670,-0.00002272,0.000201
 98,-0.00026163,-0.15988893,-0.06958310,0.04398430,0.00345476,0.0092321
 5,-0.00087361,0.00586769,0.00905200,-0.01286703,-0.00002082,-0.0000992
 9,0.00108063,-0.00018372,0.00026784,-0.00049754,0.00008710,0.00005005,
 -0.00025858,-0.00001843,-0.00006952,-0.00029445,0.61122968,0.00008966,
 0.00010689,0.00001450,0.00004452,-0.00000367,-0.00005942,0.00002453,0.
 00004299,0.00003451,-0.00000885,-0.00003880,0.00003497,0.00008494,0.00
 003879,0.00009066,-0.00002696,-0.00010246,-0.00019374,0.00000356,0.000
 01886,0.00001615,-0.00004614,-0.00004899,0.00003418,-0.00001622,0.0000
 2319,0.00004231,-0.00004820,0.00003070,-0.00005582,0.00033363,0.000609
 95,0.00072376,0.00001633,0.00036806,-0.00039600,0.00026381,0.00013954,
 -0.00014264,-0.00041270,0.00011452,-0.00033605,0.00034909,-0.00012340,
 -0.00059820,0.00388596,-0.00506623,0.00149618,0.00000412,-0.00003079,0
 .00000305,-0.00004582,-0.00003893,-0.00003354,0.00000116,0.00002377,0.
 00000603,0.00022401,0.00013754,-0.00005845,-0.00028035,0.00077289,0.00
 094102,0.00025736,-0.00008529,-0.00027850,0.00002937,-0.00056150,-0.00
 038413,0.00952258,0.03324792,-0.00765731,-0.00433958,-0.00919912,-0.00
 191547,-0.00088829,-0.00366378,0.00273718,-0.00009138,0.00008065,0.000
 27587,0.00011956,-0.00005175,-0.00019597,0.00004997,-0.00015380,-0.000
 22848,-0.03652147,-0.08747138,0.02723647,-0.02498318,-0.04063310,-0.00
 476306,-0.00482176,-0.00198604,0.00420195,-0.00015077,0.00041588,0.000
 60885,0.00001413,-0.00002272,-0.00020325,0.00009151,-0.00003810,-0.000
 15981,-0.00001536,-0.00026554,-0.00023875,0.02042884,0.60461455,-0.000
 05436,-0.00019527,-0.00002213,0.00004624,-0.00002439,-0.00000881,-0.00
 003262,-0.00007675,-0.00006883,-0.00000693,0.00003220,-0.00004793,-0.0
 0001484,-0.00006370,-0.00010397,0.00008080,0.00012919,0.00020263,-0.00
 001933,-0.00000524,-0.00000583,0.00000933,0.00006534,-0.00002516,-0.00
 005725,-0.00001715,-0.00004097,-0.00004916,0.00003501,0.00007972,-0.00
 020748,-0.00002337,-0.00002379,0.00024967,-0.00013038,-0.00015084,-0.0
 0016131,-0.00023031,-0.00019235,0.00001712,-0.00015134,0.00021788,-0.0
 0020951,0.00011808,0.00085233,-0.00204461,0.00182313,-0.00217046,-0.00
 001306,0.00000946,-0.00002169,-0.00024624,-0.00016561,0.00002386,-0.00
 001635,-0.00001038,-0.00000322,0.00021977,0.00006959,-0.00016705,0.000
 40272,0.00013420,-0.00006315,-0.00032833,-0.00004443,0.00005113,-0.000
 13413,-0.00012032,-0.00000213,-0.00067872,-0.00626430,0.02265203,-0.00
 239907,-0.00158630,-0.00316743,0.00333324,0.00202882,-0.00950103,0.000
 56936,0.00032066,-0.00006266,-0.00043699,-0.00010732,0.00007853,-0.000
 11437,-0.00021442,-0.00000776,0.02790965,0.02997635,-0.05470062,-0.013
 51920,-0.02764114,-0.00312768,0.02328405,0.02299082,-0.04435816,0.0003
 4578,0.00020185,-0.00023225,-0.00004879,-0.00006035,0.00008554,-0.0002
 2641,-0.00006988,0.00010832,-0.00008355,-0.00008889,0.00003310,-0.0109
 1817,-0.00182268,0.60386912,-0.00008490,-0.00004231,-0.00004438,0.0000
 1982,-0.00005354,0.00003746,-0.00003933,-0.00006284,-0.00005475,-0.000
 01543,0.00000577,-0.00002809,-0.00001768,-0.00008250,-0.00015392,0.000
 04049,0.00009916,0.00022409,-0.00001620,-0.00002014,-0.00001504,-0.000
 00261,0.00006392,-0.00000136,-0.00001576,-0.00000008,-0.00002789,0.000
 03895,-0.00001348,0.00006728,-0.00034211,-0.00047849,-0.00040920,-0.00
 001067,-0.00028905,0.00023349,-0.00027442,-0.00024875,0.00001745,0.000
 16342,-0.00003402,0.00036247,-0.00033040,0.00002083,0.00069334,-0.0020
 2204,0.00230501,-0.00099299,-0.00003906,0.00003175,-0.00001296,0.00000
 309,0.00020891,-0.00000707,-0.00002304,-0.00003557,-0.00000291,-0.0000
 2736,0.00011832,-0.00017913,0.00027700,-0.00011227,-0.00086379,-0.0002
 6931,-0.00005380,0.00030550,-0.00004837,0.00010199,0.00030627,0.000582
 95,-0.01023250,0.00484466,-0.00008411,0.00107934,0.00046747,-0.0002862
 5,0.00029190,-0.00104134,-0.00029461,0.00026910,-0.00017226,0.00013288
 ,-0.00007405,0.00017404,0.00004822,-0.00011869,0.00016604,-0.05285728,
 0.03622648,-0.01273688,0.00260804,-0.00306968,0.00001599,0.00309630,-0
 .00228295,0.00264730,-0.00002824,0.00008613,-0.00061306,0.00012681,-0.
 00017300,0.00029782,-0.00002155,-0.00002900,0.00013728,0.00001801,0.00
 002544,0.00016138,-0.26235151,0.08744365,-0.02560049,0.31905410,0.0000
 0670,-0.00001939,0.00001017,-0.00001882,0.00001723,0.00000225,0.000007
 22,0.00000536,0.00000483,0.00001064,0.00000840,-0.00000131,-0.00001828
 ,0.00001542,0.00002472,-0.00000182,-0.00000077,-0.00001979,0.00000201,
 0.00000248,0.00000131,0.00001339,-0.00000593,-0.00000871,0.00000759,-0
 .00000586,-0.00000215,-0.00000340,-0.00000208,-0.00000326,0.00002935,0
 .00003592,-0.00008292,-0.00001628,0.00000856,0.00000679,0.00002711,0.0
 0004612,0.00002526,0.00003524,0.00001102,-0.00004016,0.00001397,0.0000
 6345,-0.00004728,-0.00022858,0.00030126,0.00000270,0.00001391,-0.00000
 768,0.00000380,0.00002142,-0.00007411,0.00002450,0.00000451,0.00000581
 ,-0.00000014,-0.00002187,-0.00006961,0.00005715,0.00000529,-0.00014233
 ,0.00003884,0.00000636,0.00003411,-0.00002540,0.00000104,0.00009672,-0
 .00000212,-0.00111122,-0.00295939,0.00065208,0.00070377,0.00149176,0.0
 0020240,0.00036792,0.00063956,-0.00060326,0.00013793,-0.00009623,-0.00
 002040,-0.00008866,0.00003362,-0.00000228,-0.00003390,0.00006959,0.000
 00585,-0.00058618,-0.00055861,0.00133246,-0.00252372,0.00524986,0.0008
 1617,-0.00167865,0.00171340,-0.00099998,0.00006218,-0.00012264,0.00002
 749,-0.00004558,0.00005759,-0.00003687,-0.00002564,0.00001620,0.000001
 34,-0.00000557,0.00005471,0.00001107,0.09491020,-0.12825181,0.01687016
 ,-0.16516647,0.19026397,0.00000207,0.00003316,0.00000236,-0.00000196,0
 .00000087,0.00000157,0.00000180,0.00000991,0.00000999,-0.00000411,-0.0
 0000658,0.00000683,0.00000674,0.00000819,0.00000877,-0.00001287,-0.000
 01801,-0.00002462,0.00000373,0.00000016,0.00000068,-0.00000350,-0.0000
 0843,0.00000497,0.00000729,0.00000306,0.00000694,0.00001012,-0.0000064
 4,-0.00001115,0.00003717,-0.00000674,0.00000952,-0.00005090,-0.0000211
 2,0.00003569,0.00001473,0.00003301,0.00005394,0.00001435,0.00003742,-0
 .00004379,0.00000836,-0.00005906,-0.00011370,0.00031193,-0.00022941,0.
 00033903,-0.00000220,0.00000153,0.00000217,0.00004191,0.00002955,0.000
 00174,0.00000283,-0.00000022,-0.00000027,-0.00004058,0.00002278,0.0000
 0523,-0.00006578,0.00000187,-0.00003154,0.00005084,-0.00000155,0.00000
 750,0.00002318,0.00000463,0.00001266,0.00033819,0.00146232,-0.00257899
 ,0.00005450,-0.00000888,0.00034844,-0.00041339,-0.00042664,0.00137458,
 -0.00016497,-0.00003673,0.00000904,0.00011767,0.00001129,-0.00000790,0
 .00003369,0.00002593,0.00000849,0.00513778,-0.00191615,0.00275103,-0.0
 0000866,0.00196354,0.00125748,0.00186952,-0.00202380,0.00446708,-0.000
 08174,-0.00000829,0.00001624,0.00002505,-0.00000758,0.00000271,0.00004
 903,0.00000878,-0.00001630,0.00001853,0.00000596,-0.00000244,-0.029084
 77,0.01753723,-0.08135062,0.05862465,-0.03650976,0.09594192,-0.0000394
 4,-0.00002228,-0.00001075,0.00000082,-0.00001508,0.00001974,-0.0000155
 0,-0.00002573,-0.00002025,-0.00000844,0.00000637,-0.00001288,-0.000010
 38,-0.00002143,-0.00005575,0.00001780,0.00004018,0.00007626,-0.0000042
 4,-0.00000805,-0.00000565,0.00000855,0.00002254,-0.00000476,-0.0000023
 3,-0.00000235,-0.00001157,0.00002206,-0.00000904,0.00002642,-0.0000711
 0,-0.00008104,-0.00010818,-0.00000214,-0.00000891,0.00005873,-0.000076
 44,-0.00010898,-0.00003475,0.00001314,0.00009320,0.00013149,-0.0000613
 5,0.00002363,0.00012792,-0.00001109,-0.00007121,-0.00014025,-0.0000081
 5,-0.00000236,0.00000016,0.00008930,0.00003171,0.00006688,-0.00000635,
 -0.00001303,-0.00000182,0.00004267,-0.00000053,-0.00010107,0.00014757,
 -0.00007487,-0.00036670,-0.00012641,-0.00001487,0.00012267,-0.00002386
 ,0.00007368,0.00013547,0.00306521,0.00188476,0.00114415,-0.00942184,-0
 .00036115,0.00082341,-0.00045295,0.00011685,-0.00068304,-0.00005345,0.
 00008313,-0.00009048,0.00000488,-0.00002029,0.00008109,0.00000296,-0.0
 0002475,0.00007549,0.00817368,-0.02172186,-0.01677253,-0.00583927,-0.0
 0904641,0.00006602,-0.00028498,-0.00037272,0.00269825,0.00001388,-0.00
 001512,-0.00028131,0.00003902,-0.00005477,0.00012340,-0.00002375,-0.00
 000673,0.00006740,0.00000645,0.00003817,0.00008377,-0.09281898,-0.0419
 5790,-0.01223499,0.00132514,0.05074481,0.01475368,0.08321418,-0.000045
 38,-0.00002032,0.00000295,-0.00002520,0.00000566,0.00003499,-0.0000087
 0,-0.00000953,-0.00000397,-0.00000147,0.00001683,-0.00001030,-0.000034
 46,-0.00000075,-0.00003194,0.00000818,0.00002521,0.00005543,0.00000245
 ,-0.00001033,-0.00000814,0.00002582,0.00001182,-0.00001405,0.00001652,
 -0.00000776,-0.00001466,0.00003990,-0.00002385,0.00001450,-0.00010462,
 -0.00018521,-0.00027831,-0.00002974,-0.00002841,0.00019694,-0.00006517
 ,-0.00006200,0.00001774,0.00012301,0.00007175,0.00015743,-0.00004342,0
 .00004768,-0.00003562,-0.00061970,0.00124458,-0.00020949,0.00000279,0.
 00000239,0.00000907,0.00014513,0.00002347,0.00010616,0.00000309,-0.000
 01145,-0.00000242,-0.00007795,-0.00011553,0.00004914,0.00010268,-0.000
 36827,-0.00046235,-0.00009055,0.00004336,0.00013022,0.00000262,0.00028
 557,0.00019177,0.00056094,-0.00868879,-0.00101490,0.00105291,0.0058263
 3,0.00166903,-0.00060474,0.00099503,0.00051890,-0.00001672,-0.00007958
 ,-0.00013035,-0.00001373,0.00003881,0.00009039,-0.00001306,0.00010280,
 0.00011286,0.00066362,-0.02696852,-0.02631103,-0.00807628,-0.00816826,
 0.00060054,-0.00025781,0.00147970,0.00380924,0.00002883,-0.00022681,-0
 .00028694,0.00000219,0.00001496,0.00009595,-0.00001779,0.00002677,0.00
 006911,0.00001837,0.00014281,0.00011861,-0.04775904,-0.27267999,-0.086
 79969,0.03466224,-0.06200187,-0.01666618,0.02167719,0.36543642,-0.0000
 0329,0.00003204,0.00000435,-0.00001241,0.00000604,0.00000916,0.0000021
 2,0.00001170,0.00001223,-0.00000239,-0.00000236,0.00000648,-0.00000537
 ,0.00001027,0.00000979,-0.00001396,-0.00001821,-0.00001502,0.00000539,
 -0.00000166,-0.00000091,0.00000473,-0.00000872,0.00000027,0.00001368,0
 .00000100,0.00000443,0.00001970,-0.00001299,-0.00001141,-0.00001627,-0
 .00009940,-0.00011618,-0.00004283,-0.00000459,0.00010637,-0.00000020,0
 .00001927,0.00004391,0.00003775,0.00002115,0.00001264,0.00002002,-0.00
 001035,-0.00011531,-0.00007724,0.00025353,0.00020500,0.00000212,0.0000
 0398,0.00000515,0.00006859,0.00004127,0.00001893,0.00000526,-0.0000014
 4,-0.00000079,-0.00010615,-0.00003283,0.00004945,-0.00007051,-0.000152
 85,-0.00014362,0.00005059,0.00002418,0.00003383,0.00003515,0.00011959,
 0.00006591,-0.00000147,-0.00242521,-0.00345421,0.00177377,0.00196017,0
 .00176125,-0.00043186,0.00001197,0.00165190,-0.00016979,-0.00010547,-0
 .00002691,0.00011944,0.00003922,0.00001057,0.00002900,0.00008607,0.000
 04046,0.00189550,-0.00396732,-0.00159959,-0.00058093,0.00094371,0.0014
 1049,-0.00006935,0.00079706,0.00547812,-0.00007642,-0.00012046,-0.0000
 3314,0.00001391,0.00001871,0.00000980,0.00005115,0.00002531,-0.0000053
 2,0.00002733,0.00006645,0.00002942,-0.01789899,-0.09332440,-0.12022146
 ,0.00923106,-0.01132067,0.01205124,0.01636128,0.15828454,0.16689542,-0
 .00003448,-0.00001372,-0.00001662,0.00000385,-0.00001956,0.00001841,-0
 .00001497,-0.00002628,-0.00002157,-0.00000803,0.00000333,-0.00001243,-
 0.00000640,-0.00002378,-0.00005193,0.00002024,0.00003828,0.00007011,-0
 .00000563,-0.00000781,-0.00000488,0.00000480,0.00002196,-0.00000254,-0
 .00000471,-0.00000074,-0.00001087,0.00002095,-0.00000482,0.00002737,-0
 .00007190,-0.00010499,-0.00009712,-0.00003820,0.00000835,0.00005554,-0
 .00006696,-0.00009072,-0.00001420,0.00004393,0.00009253,0.00013345,-0.
 00005081,0.00002930,0.00008799,0.00008856,-0.00003084,0.00020595,-0.00
 000784,-0.00000153,0.00000361,0.00007527,0.00009034,0.00004370,-0.0000
 0733,-0.00001208,-0.00000120,0.00005678,-0.00004049,-0.00006662,0.0001
 4719,-0.00005489,-0.00030910,-0.00012943,-0.00001635,0.00010670,-0.000
 02782,0.00005359,0.00011038,0.00258744,0.00027581,-0.00370081,-0.00020
 531,0.00079737,0.00056986,-0.00954264,-0.00050046,0.00175536,0.0000174
 6,0.00011110,-0.00007420,-0.00004307,-0.00002925,0.00007337,-0.0000083
 5,-0.00004845,0.00005773,0.01112647,-0.00117462,0.02275522,-0.00043832
 ,-0.00165080,-0.00055827,-0.00453797,-0.00478505,0.00743642,0.00003125
 ,0.00001128,-0.00025712,0.00003229,-0.00005487,0.00011214,-0.00003657,
 -0.00001249,0.00006600,-0.00000058,0.00002171,0.00007172,-0.08553426,-
 0.00862738,0.01338853,-0.00803299,0.02444210,-0.05162391,0.01317514,-0
 .00123298,-0.01018812,0.08142295,-0.00002563,-0.00003594,-0.00000019,-
 0.00000654,0.00000069,0.00001569,-0.00000689,-0.00001127,-0.00000848,-
 0.00000116,0.00001322,-0.00001063,-0.00001631,-0.00000580,-0.00002326,
 0.00001106,0.00002623,0.00003776,-0.00000073,-0.00000546,-0.00000461,0
 .00001294,0.00001176,-0.00000913,0.00000146,-0.00000617,-0.00001253,0.
 00001018,-0.00000474,0.00001425,-0.00003244,-0.00002808,-0.00006260,0.
 00000751,-0.00001816,0.00002603,-0.00003326,-0.00004003,-0.00000724,0.
 00005233,0.00001897,0.00006543,-0.00004901,0.00004703,0.00006810,-0.00
 031038,0.00057762,-0.00025252,0.00000066,-0.00000203,0.00000109,0.0000
 3791,-0.00002850,0.00002537,0.00000045,-0.00000568,-0.00000117,0.00002
 222,-0.00005896,-0.00002000,0.00010848,-0.00011111,-0.00015300,-0.0000
 8521,0.00000998,0.00004548,-0.00002254,0.00008216,0.00006032,0.0001534
 0,-0.00377086,0.00160480,0.00004820,0.00111241,0.00008605,-0.00033317,
 0.00167043,-0.00136483,0.00012782,0.00002793,-0.00005486,-0.00010402,-
 0.00000452,0.00004481,-0.00003039,-0.00000062,0.00003470,0.00136773,0.
 00333069,0.01856825,0.00017315,0.00184047,0.00090038,-0.00377028,-0.00
 240183,0.00512433,0.00006659,-0.00005044,-0.00014241,-0.00000868,-0.00
 000297,0.00004636,-0.00004631,-0.00000209,0.00004467,-0.00000738,0.000
 03823,0.00004853,-0.00873812,-0.09026950,0.05110874,0.01963324,-0.0059
 2379,0.03676036,-0.00077476,0.00381525,-0.05116827,-0.00743211,0.09016
 548,0.00003670,0.00011099,0.00001121,-0.00002799,0.00001430,0.00000720
 ,0.00002100,0.00004538,0.00003976,0.00000987,-0.00001889,0.00002951,0.
 00000420,0.00003163,0.00005235,-0.00004469,-0.00007900,-0.00010229,0.0
 0000904,0.00000209,0.00000226,-0.00000894,-0.00003577,0.00001570,0.000
 03256,0.00001062,0.00002184,0.00002445,-0.00001952,-0.00004502,0.00003
 579,-0.00005351,-0.00001216,-0.00007886,0.00002913,0.00010613,0.000051
 09,0.00010032,0.00007614,-0.00004210,0.00001250,-0.00008314,0.00011043
 ,-0.00009886,-0.00038447,0.00057219,-0.00074867,0.00080074,0.00000296,
 0.00000386,0.00000802,0.00009517,0.00011068,-0.00003150,0.00000674,0.0
 0000476,0.00000240,-0.00015703,0.00006275,0.00010907,-0.00027481,-0.00
 001920,0.00004529,0.00021162,0.00001543,-0.00002598,0.00008376,0.00002
 935,-0.00000651,-0.00179058,0.00281623,-0.00787374,0.00101397,0.000421
 03,0.00130535,-0.00000616,-0.00145201,0.00606160,-0.00045258,-0.000188
 83,0.00005118,0.00034075,0.00005927,-0.00005942,0.00009056,0.00011955,
 0.00000199,-0.00801268,-0.00164638,-0.03468223,0.00142943,0.00432926,0
 .00521005,0.00712031,0.00489261,-0.00568952,-0.00021924,-0.00007250,0.
 00018136,0.00003726,0.00002410,-0.00005685,0.00015005,0.00003744,-0.00
 007981,0.00004894,0.00002489,-0.00003980,0.02187931,0.05701079,-0.3084
 0621,-0.03605753,0.02960513,-0.03455655,-0.00610691,-0.03405515,-0.064
 18270,0.01986194,-0.06143578,0.44217878\\-0.00000006,0.00000001,-0.000
 00133,0.00000057,0.00000084,-0.00000042,0.00000078,0.00000055,-0.00000
 045,0.00000080,0.00000048,-0.00000106,-0.00000034,-0.00000123,-0.00000
 093,0.00000096,0.00000114,0.00000014,0.00000079,0.00000063,-0.00000117
 ,0.00000070,0.00000026,-0.00000073,0.00000050,0.00000065,-0.00000052,0
 .00000040,0.00000104,0.00000030,-0.00000083,0.00000004,0.00000072,-0.0
 0000122,-0.00000132,0.00000032,0.00000103,0.00000035,-0.00000127,-0.00
 000077,-0.00000071,-0.00000050,-0.00000104,0.00000059,0.00000145,0.000
 00013,0.,-0.00000078,0.,-0.00000045,0.00000039,0.00000073,0.00000079,-
 0.00000031,0.00000065,0.00000016,-0.00000141,-0.00000041,-0.00000017,0
 .00000038,0.00000398,-0.00000365,-0.00000078,-0.00000282,-0.00000252,0
 .00000196,-0.00000005,0.00000299,-0.00000057,0.00000123,-0.00000396,0.
 00000260,-0.00000009,0.00000329,0.00000272,-0.00000101,0.00000116,-0.0
 0000214,-0.00000713,0.00000045,-0.00000146,0.00000288,0.00000019,0.000
 00144,0.00000042,-0.00000134,-0.00000037,-0.00000364,0.00000507,-0.000
 00259,0.00000101,0.00000003,-0.00000072,0.00000057,0.00000009,0.000002
 97,0.00001103,-0.00000952,0.00000262,-0.00000483,0.00000321,-0.0000033
 9,-0.00000418,-0.00000100,-0.00000194,-0.00000062,0.00000013,0.0000025
 1,0.00000814,-0.00000961,0.00000623,-0.00000589,0.00000553,-0.00000091
 ,-0.00000157,0.00000343,0.00000151,-0.00000078,0.00000239,-0.00000253\
 \\@
 The archive entry for this job was punched.


 MATERIAL COPIED FROM ONE SCHOLARLY BOOK WITHOUT CREDIT COMPRISES PLAGIARISM.
 MATERIAL COPIED FROM TWO SCHOLARLY BOOKS COMPRISES AN ESSAY.
 MATERIAL COPIED FROM THREE SCHOLARLY BOOKS COMPRISES A DISSERTATION.
 MATERIAL COPIED FROM FOUR SCHOLARLY BOOKS COMPRISES A FIFTH SCHOLARLY BOOK.

                               -- C&EN, 25 FEB 1980
 Job cpu time:       6 days 17 hours 36 minutes 13.8 seconds.
 Elapsed time:       0 days  5 hours  8 minutes 36.1 seconds.
 File lengths (MBytes):  RWF=   6435 Int=      0 D2E=      0 Chk=     85 Scr=      1
 Normal termination of Gaussian 16 at Tue Nov 14 18:45:14 2023.
