 Entering Gaussian System, Link 0=g16
 Input=ph_35hex_154_1_m062x.com
 Output=ph_35hex_154_1_m062x.log
 Initial command:
 /arc/software/Gaussian/g16.c01/l1.exe "/tmp/slurm/41252/Gau-209837.inp" -scrdir="/tmp/slurm/41252/"
 Entering Link 1 = /arc/software/Gaussian/g16.c01/l1.exe PID=    209838.
  
 Copyright (c) 1988-2019, Gaussian, Inc.  All Rights Reserved.
  
 This is part of the Gaussian(R) 16 program.  It is based on
 the Gaussian(R) 09 system (copyright 2009, Gaussian, Inc.),
 the Gaussian(R) 03 system (copyright 2003, Gaussian, Inc.),
 the Gaussian(R) 98 system (copyright 1998, Gaussian, Inc.),
 the Gaussian(R) 94 system (copyright 1995, Gaussian, Inc.),
 the Gaussian 92(TM) system (copyright 1992, Gaussian, Inc.),
 the Gaussian 90(TM) system (copyright 1990, Gaussian, Inc.),
 the Gaussian 88(TM) system (copyright 1988, Gaussian, Inc.),
 the Gaussian 86(TM) system (copyright 1986, Carnegie Mellon
 University), and the Gaussian 82(TM) system (copyright 1983,
 Carnegie Mellon University). Gaussian is a federally registered
 trademark of Gaussian, Inc.
  
 This software contains proprietary and confidential information,
 including trade secrets, belonging to Gaussian, Inc.
  
 This software is provided under written license and may be
 used, copied, transmitted, or stored only in accord with that
 written license.
  
 The following legend is applicable only to US Government
 contracts under FAR:
  
                    RESTRICTED RIGHTS LEGEND
  
 Use, reproduction and disclosure by the US Government is
 subject to restrictions as set forth in subparagraphs (a)
 and (c) of the Commercial Computer Software - Restricted
 Rights clause in FAR 52.227-19.
  
 Gaussian, Inc.
 340 Quinnipiac St., Bldg. 40, Wallingford CT 06492
  
  
 ---------------------------------------------------------------
 Warning -- This program may not be used in any manner that
 competes with the business of Gaussian, Inc. or will provide
 assistance to any competitor of Gaussian, Inc.  The licensee
 of this program is prohibited from giving any competitor of
 Gaussian, Inc. access to this program.  By using this program,
 the user acknowledges that Gaussian, Inc. is engaged in the
 business of creating and licensing software in the field of
 computational chemistry and represents and warrants to the
 licensee that it is not a competitor of Gaussian, Inc. and that
 it will not use this program in any manner prohibited above.
 ---------------------------------------------------------------
  

 Cite this work as:
 Gaussian 16, Revision C.01,
 M. J. Frisch, G. W. Trucks, H. B. Schlegel, G. E. Scuseria, 
 M. A. Robb, J. R. Cheeseman, G. Scalmani, V. Barone, 
 G. A. Petersson, H. Nakatsuji, X. Li, M. Caricato, A. V. Marenich, 
 J. Bloino, B. G. Janesko, R. Gomperts, B. Mennucci, H. P. Hratchian, 
 J. V. Ortiz, A. F. Izmaylov, J. L. Sonnenberg, D. Williams-Young, 
 F. Ding, F. Lipparini, F. Egidi, J. Goings, B. Peng, A. Petrone, 
 T. Henderson, D. Ranasinghe, V. G. Zakrzewski, J. Gao, N. Rega, 
 G. Zheng, W. Liang, M. Hada, M. Ehara, K. Toyota, R. Fukuda, 
 J. Hasegawa, M. Ishida, T. Nakajima, Y. Honda, O. Kitao, H. Nakai, 
 T. Vreven, K. Throssell, J. A. Montgomery, Jr., J. E. Peralta, 
 F. Ogliaro, M. J. Bearpark, J. J. Heyd, E. N. Brothers, K. N. Kudin, 
 V. N. Staroverov, T. A. Keith, R. Kobayashi, J. Normand, 
 K. Raghavachari, A. P. Rendell, J. C. Burant, S. S. Iyengar, 
 J. Tomasi, M. Cossi, J. M. Millam, M. Klene, C. Adamo, R. Cammi, 
 J. W. Ochterski, R. L. Martin, K. Morokuma, O. Farkas, 
 J. B. Foresman, and D. J. Fox, Gaussian, Inc., Wallingford CT, 2019.
 
 ******************************************
 Gaussian 16:  ES64L-G16RevC.01  3-Jul-2019
                 9-Nov-2023 
 ******************************************
 %nprocshared=32
 Will use up to   32 processors via shared memory.
 %mem=8000MB
 %chk=ph_35hex_154_1_m062x.chk
 -----------------------------------------
 # opt freq=noraman m062x def2tzvp pop=nbo
 -----------------------------------------
 1/18=20,19=15,26=3,38=1/1,3;
 2/9=110,12=2,17=6,18=5,40=1/2;
 3/5=44,7=101,11=2,25=1,30=1,71=1,74=-55/1,2,3;
 4//1;
 5/5=2,38=5/2;
 6/7=2,8=2,9=2,10=2,28=1,40=1/1,7;
 7//1,2,3,16;
 1/18=20,19=15,26=3/3(2);
 2/9=110/2;
 99//99;
 2/9=110/2;
 3/5=44,7=101,11=2,25=1,30=1,71=1,74=-55/1,2,3;
 4/5=5,16=3,69=1/1;
 5/5=2,38=5/2;
 7//1,2,3,16;
 1/18=20,19=15,26=3/3(-5);
 2/9=110/2;
 6/7=2,8=2,9=2,10=2,19=2,28=1,40=1/1,7;
 99/9=1/99;
 ------------
 Structure697
 ------------
 Symbolic Z-matrix:
 Charge =  0 Multiplicity = 1
 C                    -3.6078   -0.3587   -2.4708 
 C                    -3.9666    0.8725   -3.0144 
 C                    -5.1519    1.4829   -2.6141 
 C                    -5.979     0.8711   -1.6763 
 C                    -5.6161   -0.3607   -1.137 
 C                    -4.4268   -0.9917   -1.5261 
 H                    -5.4319    2.4384   -3.0342 
 H                    -6.2584   -0.8199   -0.4 
 H                    -3.3293    1.349    -3.7452 
 H                    -2.6927   -0.8297   -2.7984 
 C                    -3.3112   -4.7961    0.1522 
 C                    -4.6501   -4.532    -0.1399 
 C                    -5.0045   -3.2948   -0.6843 
 C                    -4.0399   -2.3116   -0.9457 
 C                    -2.702    -2.6017   -0.6439 
 C                    -2.3319   -3.833    -0.0964 
 H                    -6.0411   -3.1002   -0.9159 
 H                    -1.9415   -1.8552   -0.8177 
 H                    -6.8962    1.35     -1.3656 
 H                    -3.033    -5.7469    0.5829 
 C                    -5.7151   -5.5802    0.1412 
 H                    -6.5155   -5.4827   -0.5943 
 H                    -5.2908   -6.5714   -0.0274 
 C                    -0.8733   -4.1161    0.2354 
 H                    -0.2561   -3.7211   -0.5731 
 H                    -0.6945   -5.1926    0.2224 
 C                    -6.281    -5.4743    1.5688 
 H                    -5.4662   -5.5722    2.2888 
 H                    -6.6987   -4.477     1.7189 
 C                    -0.4161   -3.5141    1.5799 
 H                     0.66     -3.6646    1.6807 
 H                    -0.5651   -2.4328    1.5626 
 C                    -7.3582   -6.533     1.8641 
 H                    -8.1725   -6.4333    1.144 
 H                    -6.9389   -7.5295    1.7135 
 C                    -1.1262   -4.1144    2.8091 
 H                    -2.1998   -3.9313    2.7346 
 H                    -1.0021   -5.1987    2.8074 
 C                    -7.922    -6.4259    3.2919 
 H                    -7.1079   -6.5253    4.0124 
 H                    -8.3412   -5.4294    3.4432 
 C                    -0.6065   -3.5395    4.1383 
 H                    -0.7324   -2.4552    4.1377 
 H                     0.4667   -3.7215    4.2192 
 C                    -8.9986   -7.484     3.5877 
 H                    -9.8164   -7.3869    2.8714 
 H                    -8.5833   -8.4826    3.4406 
 C                    -1.3208   -4.136     5.3631 
 H                    -2.3941   -3.9527    5.2872 
 H                    -1.1979   -5.2205    5.3687 
 C                    -9.5598   -7.3755    5.0124 
 H                    -10.0219  -6.4026    5.1843 
 H                    -8.7762   -7.5094    5.7592 
 H                    -10.3194  -8.137     5.1922 
 C                    -0.8026   -3.5616    6.6891 
 H                    -0.9476   -2.4817    6.7374 
 H                     0.2615   -3.7619    6.82 
 H                    -1.3275   -4.0024    7.5373 
 

 GradGradGradGradGradGradGradGradGradGradGradGradGradGradGradGradGradGrad
 Berny optimization.
 Initialization pass.
                           ----------------------------
                           !    Initial Parameters    !
                           ! (Angstroms and Degrees)  !
 --------------------------                            --------------------------
 ! Name  Definition              Value          Derivative Info.                !
 --------------------------------------------------------------------------------
 ! R1    R(1,2)                  1.3929         estimate D2E/DX2                !
 ! R2    R(1,6)                  1.4014         estimate D2E/DX2                !
 ! R3    R(1,10)                 1.0801         estimate D2E/DX2                !
 ! R4    R(2,3)                  1.392          estimate D2E/DX2                !
 ! R5    R(2,9)                  1.0804         estimate D2E/DX2                !
 ! R6    R(3,4)                  1.3921         estimate D2E/DX2                !
 ! R7    R(3,7)                  1.0807         estimate D2E/DX2                !
 ! R8    R(4,5)                  1.3928         estimate D2E/DX2                !
 ! R9    R(4,19)                 1.0803         estimate D2E/DX2                !
 ! R10   R(5,6)                  1.4014         estimate D2E/DX2                !
 ! R11   R(5,8)                  1.0801         estimate D2E/DX2                !
 ! R12   R(6,14)                 1.4929         estimate D2E/DX2                !
 ! R13   R(11,12)                1.3956         estimate D2E/DX2                !
 ! R14   R(11,16)                1.3958         estimate D2E/DX2                !
 ! R15   R(11,20)                1.0802         estimate D2E/DX2                !
 ! R16   R(12,13)                1.3974         estimate D2E/DX2                !
 ! R17   R(12,21)                1.5205         estimate D2E/DX2                !
 ! R18   R(13,14)                1.402          estimate D2E/DX2                !
 ! R19   R(13,17)                1.0798         estimate D2E/DX2                !
 ! R20   R(14,15)                1.4019         estimate D2E/DX2                !
 ! R21   R(15,16)                1.3974         estimate D2E/DX2                !
 ! R22   R(15,18)                1.0797         estimate D2E/DX2                !
 ! R23   R(16,24)                1.5224         estimate D2E/DX2                !
 ! R24   R(21,22)                1.0914         estimate D2E/DX2                !
 ! R25   R(21,23)                1.0913         estimate D2E/DX2                !
 ! R26   R(21,27)                1.5393         estimate D2E/DX2                !
 ! R27   R(24,25)                1.0912         estimate D2E/DX2                !
 ! R28   R(24,26)                1.0913         estimate D2E/DX2                !
 ! R29   R(24,30)                1.5424         estimate D2E/DX2                !
 ! R30   R(27,28)                1.0917         estimate D2E/DX2                !
 ! R31   R(27,29)                1.0916         estimate D2E/DX2                !
 ! R32   R(27,33)                1.539          estimate D2E/DX2                !
 ! R33   R(30,31)                1.0912         estimate D2E/DX2                !
 ! R34   R(30,32)                1.0917         estimate D2E/DX2                !
 ! R35   R(30,36)                1.5413         estimate D2E/DX2                !
 ! R36   R(33,34)                1.0916         estimate D2E/DX2                !
 ! R37   R(33,35)                1.0916         estimate D2E/DX2                !
 ! R38   R(33,39)                1.5388         estimate D2E/DX2                !
 ! R39   R(36,37)                1.0916         estimate D2E/DX2                !
 ! R40   R(36,38)                1.0914         estimate D2E/DX2                !
 ! R41   R(36,42)                1.5386         estimate D2E/DX2                !
 ! R42   R(39,40)                1.0917         estimate D2E/DX2                !
 ! R43   R(39,41)                1.0916         estimate D2E/DX2                !
 ! R44   R(39,45)                1.5382         estimate D2E/DX2                !
 ! R45   R(42,43)                1.0916         estimate D2E/DX2                !
 ! R46   R(42,44)                1.0915         estimate D2E/DX2                !
 ! R47   R(42,48)                1.5382         estimate D2E/DX2                !
 ! R48   R(45,46)                1.0915         estimate D2E/DX2                !
 ! R49   R(45,47)                1.0915         estimate D2E/DX2                !
 ! R50   R(45,51)                1.5351         estimate D2E/DX2                !
 ! R51   R(48,49)                1.0915         estimate D2E/DX2                !
 ! R52   R(48,50)                1.0915         estimate D2E/DX2                !
 ! R53   R(48,55)                1.5352         estimate D2E/DX2                !
 ! R54   R(51,52)                1.0907         estimate D2E/DX2                !
 ! R55   R(51,53)                1.0907         estimate D2E/DX2                !
 ! R56   R(51,54)                1.0905         estimate D2E/DX2                !
 ! R57   R(55,56)                1.0907         estimate D2E/DX2                !
 ! R58   R(55,57)                1.0907         estimate D2E/DX2                !
 ! R59   R(55,58)                1.0905         estimate D2E/DX2                !
 ! A1    A(2,1,6)              120.7844         estimate D2E/DX2                !
 ! A2    A(2,1,10)             119.0347         estimate D2E/DX2                !
 ! A3    A(6,1,10)             120.1749         estimate D2E/DX2                !
 ! A4    A(1,2,3)              119.6506         estimate D2E/DX2                !
 ! A5    A(1,2,9)              120.1247         estimate D2E/DX2                !
 ! A6    A(3,2,9)              120.2244         estimate D2E/DX2                !
 ! A7    A(2,3,4)              120.459          estimate D2E/DX2                !
 ! A8    A(2,3,7)              119.7709         estimate D2E/DX2                !
 ! A9    A(4,3,7)              119.7701         estimate D2E/DX2                !
 ! A10   A(3,4,5)              119.652          estimate D2E/DX2                !
 ! A11   A(3,4,19)             120.2221         estimate D2E/DX2                !
 ! A12   A(5,4,19)             120.1256         estimate D2E/DX2                !
 ! A13   A(4,5,6)              120.7852         estimate D2E/DX2                !
 ! A14   A(4,5,8)              119.0305         estimate D2E/DX2                !
 ! A15   A(6,5,8)              120.178          estimate D2E/DX2                !
 ! A16   A(1,6,5)              118.6688         estimate D2E/DX2                !
 ! A17   A(1,6,14)             120.6623         estimate D2E/DX2                !
 ! A18   A(5,6,14)             120.669          estimate D2E/DX2                !
 ! A19   A(12,11,16)           120.3465         estimate D2E/DX2                !
 ! A20   A(12,11,20)           119.8071         estimate D2E/DX2                !
 ! A21   A(16,11,20)           119.8431         estimate D2E/DX2                !
 ! A22   A(11,12,13)           119.4985         estimate D2E/DX2                !
 ! A23   A(11,12,21)           120.1862         estimate D2E/DX2                !
 ! A24   A(13,12,21)           120.314          estimate D2E/DX2                !
 ! A25   A(12,13,14)           121.2695         estimate D2E/DX2                !
 ! A26   A(12,13,17)           119.116          estimate D2E/DX2                !
 ! A27   A(14,13,17)           119.6116         estimate D2E/DX2                !
 ! A28   A(6,14,13)            120.9455         estimate D2E/DX2                !
 ! A29   A(6,14,15)            120.9305         estimate D2E/DX2                !
 ! A30   A(13,14,15)           118.1239         estimate D2E/DX2                !
 ! A31   A(14,15,16)           121.2948         estimate D2E/DX2                !
 ! A32   A(14,15,18)           119.6353         estimate D2E/DX2                !
 ! A33   A(16,15,18)           119.0586         estimate D2E/DX2                !
 ! A34   A(11,16,15)           119.4665         estimate D2E/DX2                !
 ! A35   A(11,16,24)           120.3348         estimate D2E/DX2                !
 ! A36   A(15,16,24)           120.197          estimate D2E/DX2                !
 ! A37   A(12,21,22)           109.1173         estimate D2E/DX2                !
 ! A38   A(12,21,23)           108.9809         estimate D2E/DX2                !
 ! A39   A(12,21,27)           112.4281         estimate D2E/DX2                !
 ! A40   A(22,21,23)           105.1987         estimate D2E/DX2                !
 ! A41   A(22,21,27)           110.4413         estimate D2E/DX2                !
 ! A42   A(23,21,27)           110.4081         estimate D2E/DX2                !
 ! A43   A(16,24,25)           108.2476         estimate D2E/DX2                !
 ! A44   A(16,24,26)           109.743          estimate D2E/DX2                !
 ! A45   A(16,24,30)           113.6649         estimate D2E/DX2                !
 ! A46   A(25,24,26)           104.8082         estimate D2E/DX2                !
 ! A47   A(25,24,30)           109.6894         estimate D2E/DX2                !
 ! A48   A(26,24,30)           110.2923         estimate D2E/DX2                !
 ! A49   A(21,27,28)           109.3351         estimate D2E/DX2                !
 ! A50   A(21,27,29)           109.3325         estimate D2E/DX2                !
 ! A51   A(21,27,33)           112.8272         estimate D2E/DX2                !
 ! A52   A(28,27,29)           106.0708         estimate D2E/DX2                !
 ! A53   A(28,27,33)           109.5216         estimate D2E/DX2                !
 ! A54   A(29,27,33)           109.5287         estimate D2E/DX2                !
 ! A55   A(24,30,31)           108.602          estimate D2E/DX2                !
 ! A56   A(24,30,32)           109.4095         estimate D2E/DX2                !
 ! A57   A(24,30,36)           113.9915         estimate D2E/DX2                !
 ! A58   A(31,30,32)           105.8231         estimate D2E/DX2                !
 ! A59   A(31,30,36)           109.0835         estimate D2E/DX2                !
 ! A60   A(32,30,36)           109.6055         estimate D2E/DX2                !
 ! A61   A(27,33,34)           109.4348         estimate D2E/DX2                !
 ! A62   A(27,33,35)           109.4313         estimate D2E/DX2                !
 ! A63   A(27,33,39)           112.7439         estimate D2E/DX2                !
 ! A64   A(34,33,35)           106.1956         estimate D2E/DX2                !
 ! A65   A(34,33,39)           109.4155         estimate D2E/DX2                !
 ! A66   A(35,33,39)           109.4079         estimate D2E/DX2                !
 ! A67   A(30,36,37)           109.4723         estimate D2E/DX2                !
 ! A68   A(30,36,38)           109.4707         estimate D2E/DX2                !
 ! A69   A(30,36,42)           112.8191         estimate D2E/DX2                !
 ! A70   A(37,36,38)           106.1625         estimate D2E/DX2                !
 ! A71   A(37,36,42)           109.176          estimate D2E/DX2                !
 ! A72   A(38,36,42)           109.5214         estimate D2E/DX2                !
 ! A73   A(33,39,40)           109.4398         estimate D2E/DX2                !
 ! A74   A(33,39,41)           109.4409         estimate D2E/DX2                !
 ! A75   A(33,39,45)           112.7669         estimate D2E/DX2                !
 ! A76   A(40,39,41)           106.1419         estimate D2E/DX2                !
 ! A77   A(40,39,45)           109.4138         estimate D2E/DX2                !
 ! A78   A(41,39,45)           109.421          estimate D2E/DX2                !
 ! A79   A(36,42,43)           109.3732         estimate D2E/DX2                !
 ! A80   A(36,42,44)           109.5011         estimate D2E/DX2                !
 ! A81   A(36,42,48)           112.7132         estimate D2E/DX2                !
 ! A82   A(43,42,44)           106.2046         estimate D2E/DX2                !
 ! A83   A(43,42,48)           109.3947         estimate D2E/DX2                !
 ! A84   A(44,42,48)           109.4445         estimate D2E/DX2                !
 ! A85   A(39,45,46)           109.695          estimate D2E/DX2                !
 ! A86   A(39,45,47)           109.7012         estimate D2E/DX2                !
 ! A87   A(39,45,51)           112.6886         estimate D2E/DX2                !
 ! A88   A(46,45,47)           106.1431         estimate D2E/DX2                !
 ! A89   A(46,45,51)           109.2004         estimate D2E/DX2                !
 ! A90   A(47,45,51)           109.1989         estimate D2E/DX2                !
 ! A91   A(42,48,49)           109.6416         estimate D2E/DX2                !
 ! A92   A(42,48,50)           109.7007         estimate D2E/DX2                !
 ! A93   A(42,48,55)           112.7002         estimate D2E/DX2                !
 ! A94   A(49,48,50)           106.1379         estimate D2E/DX2                !
 ! A95   A(49,48,55)           109.2177         estimate D2E/DX2                !
 ! A96   A(50,48,55)           109.2285         estimate D2E/DX2                !
 ! A97   A(45,51,52)           111.3588         estimate D2E/DX2                !
 ! A98   A(45,51,53)           111.3541         estimate D2E/DX2                !
 ! A99   A(45,51,54)           110.9967         estimate D2E/DX2                !
 ! A100  A(52,51,53)           107.8167         estimate D2E/DX2                !
 ! A101  A(52,51,54)           107.5647         estimate D2E/DX2                !
 ! A102  A(53,51,54)           107.5663         estimate D2E/DX2                !
 ! A103  A(48,55,56)           111.3364         estimate D2E/DX2                !
 ! A104  A(48,55,57)           111.3633         estimate D2E/DX2                !
 ! A105  A(48,55,58)           110.9835         estimate D2E/DX2                !
 ! A106  A(56,55,57)           107.8321         estimate D2E/DX2                !
 ! A107  A(56,55,58)           107.5647         estimate D2E/DX2                !
 ! A108  A(57,55,58)           107.5788         estimate D2E/DX2                !
 ! D1    D(6,1,2,3)              0.0688         estimate D2E/DX2                !
 ! D2    D(6,1,2,9)           -179.7342         estimate D2E/DX2                !
 ! D3    D(10,1,2,3)           179.1786         estimate D2E/DX2                !
 ! D4    D(10,1,2,9)            -0.6244         estimate D2E/DX2                !
 ! D5    D(2,1,6,5)             -0.041          estimate D2E/DX2                !
 ! D6    D(2,1,6,14)           179.9714         estimate D2E/DX2                !
 ! D7    D(10,1,6,5)          -179.1407         estimate D2E/DX2                !
 ! D8    D(10,1,6,14)            0.8717         estimate D2E/DX2                !
 ! D9    D(1,2,3,4)             -0.0275         estimate D2E/DX2                !
 ! D10   D(1,2,3,7)            179.9665         estimate D2E/DX2                !
 ! D11   D(9,2,3,4)            179.7753         estimate D2E/DX2                !
 ! D12   D(9,2,3,7)             -0.2307         estimate D2E/DX2                !
 ! D13   D(2,3,4,5)             -0.0407         estimate D2E/DX2                !
 ! D14   D(2,3,4,19)           179.7691         estimate D2E/DX2                !
 ! D15   D(7,3,4,5)            179.9653         estimate D2E/DX2                !
 ! D16   D(7,3,4,19)            -0.2248         estimate D2E/DX2                !
 ! D17   D(3,4,5,6)              0.0688         estimate D2E/DX2                !
 ! D18   D(3,4,5,8)            179.1594         estimate D2E/DX2                !
 ! D19   D(19,4,5,6)          -179.7412         estimate D2E/DX2                !
 ! D20   D(19,4,5,8)            -0.6506         estimate D2E/DX2                !
 ! D21   D(4,5,6,1)             -0.0281         estimate D2E/DX2                !
 ! D22   D(4,5,6,14)           179.9595         estimate D2E/DX2                !
 ! D23   D(8,5,6,1)           -179.1083         estimate D2E/DX2                !
 ! D24   D(8,5,6,14)             0.8793         estimate D2E/DX2                !
 ! D25   D(1,6,14,13)         -142.1235         estimate D2E/DX2                !
 ! D26   D(1,6,14,15)           38.0206         estimate D2E/DX2                !
 ! D27   D(5,6,14,13)           37.8891         estimate D2E/DX2                !
 ! D28   D(5,6,14,15)         -141.9667         estimate D2E/DX2                !
 ! D29   D(16,11,12,13)          0.0185         estimate D2E/DX2                !
 ! D30   D(16,11,12,21)       -179.5818         estimate D2E/DX2                !
 ! D31   D(20,11,12,13)        179.3521         estimate D2E/DX2                !
 ! D32   D(20,11,12,21)         -0.2481         estimate D2E/DX2                !
 ! D33   D(12,11,16,15)         -0.1604         estimate D2E/DX2                !
 ! D34   D(12,11,16,24)        179.3804         estimate D2E/DX2                !
 ! D35   D(20,11,16,15)       -179.4938         estimate D2E/DX2                !
 ! D36   D(20,11,16,24)          0.047          estimate D2E/DX2                !
 ! D37   D(11,12,13,14)          0.1007         estimate D2E/DX2                !
 ! D38   D(11,12,13,17)        179.4743         estimate D2E/DX2                !
 ! D39   D(21,12,13,14)        179.7005         estimate D2E/DX2                !
 ! D40   D(21,12,13,17)         -0.9259         estimate D2E/DX2                !
 ! D41   D(11,12,21,22)       -148.5667         estimate D2E/DX2                !
 ! D42   D(11,12,21,23)        -34.1956         estimate D2E/DX2                !
 ! D43   D(11,12,21,27)         88.549          estimate D2E/DX2                !
 ! D44   D(13,12,21,22)         31.8363         estimate D2E/DX2                !
 ! D45   D(13,12,21,23)        146.2074         estimate D2E/DX2                !
 ! D46   D(13,12,21,27)        -91.048          estimate D2E/DX2                !
 ! D47   D(12,13,14,6)        -179.934          estimate D2E/DX2                !
 ! D48   D(12,13,14,15)         -0.0742         estimate D2E/DX2                !
 ! D49   D(17,13,14,6)           0.6955         estimate D2E/DX2                !
 ! D50   D(17,13,14,15)       -179.4447         estimate D2E/DX2                !
 ! D51   D(6,14,15,16)         179.7885         estimate D2E/DX2                !
 ! D52   D(6,14,15,18)           1.0273         estimate D2E/DX2                !
 ! D53   D(13,14,15,16)         -0.0713         estimate D2E/DX2                !
 ! D54   D(13,14,15,18)       -178.8326         estimate D2E/DX2                !
 ! D55   D(14,15,16,11)          0.1882         estimate D2E/DX2                !
 ! D56   D(14,15,16,24)       -179.3532         estimate D2E/DX2                !
 ! D57   D(18,15,16,11)        178.9565         estimate D2E/DX2                !
 ! D58   D(18,15,16,24)         -0.585          estimate D2E/DX2                !
 ! D59   D(11,16,24,25)        139.1926         estimate D2E/DX2                !
 ! D60   D(11,16,24,26)         25.3482         estimate D2E/DX2                !
 ! D61   D(11,16,24,30)        -98.6787         estimate D2E/DX2                !
 ! D62   D(15,16,24,25)        -41.2699         estimate D2E/DX2                !
 ! D63   D(15,16,24,26)       -155.1144         estimate D2E/DX2                !
 ! D64   D(15,16,24,30)         80.8587         estimate D2E/DX2                !
 ! D65   D(12,21,27,28)        -57.7581         estimate D2E/DX2                !
 ! D66   D(12,21,27,29)         57.9638         estimate D2E/DX2                !
 ! D67   D(12,21,27,33)       -179.8936         estimate D2E/DX2                !
 ! D68   D(22,21,27,28)       -179.8954         estimate D2E/DX2                !
 ! D69   D(22,21,27,29)        -64.1735         estimate D2E/DX2                !
 ! D70   D(22,21,27,33)         57.9691         estimate D2E/DX2                !
 ! D71   D(23,21,27,28)         64.1796         estimate D2E/DX2                !
 ! D72   D(23,21,27,29)        179.9015         estimate D2E/DX2                !
 ! D73   D(23,21,27,33)        -57.9559         estimate D2E/DX2                !
 ! D74   D(16,24,30,31)       -173.5296         estimate D2E/DX2                !
 ! D75   D(16,24,30,32)        -58.4659         estimate D2E/DX2                !
 ! D76   D(16,24,30,36)         64.6417         estimate D2E/DX2                !
 ! D77   D(25,24,30,31)        -52.2024         estimate D2E/DX2                !
 ! D78   D(25,24,30,32)         62.8612         estimate D2E/DX2                !
 ! D79   D(25,24,30,36)       -174.0311         estimate D2E/DX2                !
 ! D80   D(26,24,30,31)         62.7416         estimate D2E/DX2                !
 ! D81   D(26,24,30,32)        177.8052         estimate D2E/DX2                !
 ! D82   D(26,24,30,36)        -59.0872         estimate D2E/DX2                !
 ! D83   D(21,27,33,34)        -58.0175         estimate D2E/DX2                !
 ! D84   D(21,27,33,35)         57.9655         estimate D2E/DX2                !
 ! D85   D(21,27,33,39)        179.9679         estimate D2E/DX2                !
 ! D86   D(28,27,33,34)        179.952          estimate D2E/DX2                !
 ! D87   D(28,27,33,35)        -64.065          estimate D2E/DX2                !
 ! D88   D(28,27,33,39)         57.9374         estimate D2E/DX2                !
 ! D89   D(29,27,33,34)         64.0148         estimate D2E/DX2                !
 ! D90   D(29,27,33,35)        179.9978         estimate D2E/DX2                !
 ! D91   D(29,27,33,39)        -57.9999         estimate D2E/DX2                !
 ! D92   D(24,30,36,37)        -60.7344         estimate D2E/DX2                !
 ! D93   D(24,30,36,38)         55.2524         estimate D2E/DX2                !
 ! D94   D(24,30,36,42)        177.4796         estimate D2E/DX2                !
 ! D95   D(31,30,36,37)        177.703          estimate D2E/DX2                !
 ! D96   D(31,30,36,38)        -66.3102         estimate D2E/DX2                !
 ! D97   D(31,30,36,42)         55.917          estimate D2E/DX2                !
 ! D98   D(32,30,36,37)         62.2665         estimate D2E/DX2                !
 ! D99   D(32,30,36,38)        178.2533         estimate D2E/DX2                !
 ! D100  D(32,30,36,42)        -59.5195         estimate D2E/DX2                !
 ! D101  D(27,33,39,40)        -57.9599         estimate D2E/DX2                !
 ! D102  D(27,33,39,41)         57.9668         estimate D2E/DX2                !
 ! D103  D(27,33,39,45)       -179.9915         estimate D2E/DX2                !
 ! D104  D(34,33,39,40)       -179.9854         estimate D2E/DX2                !
 ! D105  D(34,33,39,41)        -64.0587         estimate D2E/DX2                !
 ! D106  D(34,33,39,45)         57.983          estimate D2E/DX2                !
 ! D107  D(35,33,39,40)         64.0556         estimate D2E/DX2                !
 ! D108  D(35,33,39,41)        179.9823         estimate D2E/DX2                !
 ! D109  D(35,33,39,45)        -57.976          estimate D2E/DX2                !
 ! D110  D(30,36,42,43)         57.8411         estimate D2E/DX2                !
 ! D111  D(30,36,42,44)        -58.1573         estimate D2E/DX2                !
 ! D112  D(30,36,42,48)        179.7643         estimate D2E/DX2                !
 ! D113  D(37,36,42,43)        -64.1121         estimate D2E/DX2                !
 ! D114  D(37,36,42,44)        179.8896         estimate D2E/DX2                !
 ! D115  D(37,36,42,48)         57.8112         estimate D2E/DX2                !
 ! D116  D(38,36,42,43)       -179.9602         estimate D2E/DX2                !
 ! D117  D(38,36,42,44)         64.0414         estimate D2E/DX2                !
 ! D118  D(38,36,42,48)        -58.037          estimate D2E/DX2                !
 ! D119  D(33,39,45,46)        -58.1101         estimate D2E/DX2                !
 ! D120  D(33,39,45,47)         58.1118         estimate D2E/DX2                !
 ! D121  D(33,39,45,51)       -179.9979         estimate D2E/DX2                !
 ! D122  D(40,39,45,46)        179.8436         estimate D2E/DX2                !
 ! D123  D(40,39,45,47)        -63.9345         estimate D2E/DX2                !
 ! D124  D(40,39,45,51)         57.9559         estimate D2E/DX2                !
 ! D125  D(41,39,45,46)         63.9428         estimate D2E/DX2                !
 ! D126  D(41,39,45,47)       -179.8353         estimate D2E/DX2                !
 ! D127  D(41,39,45,51)        -57.945          estimate D2E/DX2                !
 ! D128  D(36,42,48,49)        -58.0875         estimate D2E/DX2                !
 ! D129  D(36,42,48,50)         58.0971         estimate D2E/DX2                !
 ! D130  D(36,42,48,55)       -179.9671         estimate D2E/DX2                !
 ! D131  D(43,42,48,49)         63.8236         estimate D2E/DX2                !
 ! D132  D(43,42,48,50)       -179.9918         estimate D2E/DX2                !
 ! D133  D(43,42,48,55)        -58.056          estimate D2E/DX2                !
 ! D134  D(44,42,48,49)        179.8023         estimate D2E/DX2                !
 ! D135  D(44,42,48,50)        -64.0131         estimate D2E/DX2                !
 ! D136  D(44,42,48,55)         57.9226         estimate D2E/DX2                !
 ! D137  D(39,45,51,52)         60.1845         estimate D2E/DX2                !
 ! D138  D(39,45,51,53)        -60.19           estimate D2E/DX2                !
 ! D139  D(39,45,51,54)        179.9978         estimate D2E/DX2                !
 ! D140  D(46,45,51,52)        -61.9825         estimate D2E/DX2                !
 ! D141  D(46,45,51,53)        177.643          estimate D2E/DX2                !
 ! D142  D(46,45,51,54)         57.8308         estimate D2E/DX2                !
 ! D143  D(47,45,51,52)       -177.6416         estimate D2E/DX2                !
 ! D144  D(47,45,51,53)         61.9839         estimate D2E/DX2                !
 ! D145  D(47,45,51,54)        -57.8283         estimate D2E/DX2                !
 ! D146  D(42,48,55,56)         60.1757         estimate D2E/DX2                !
 ! D147  D(42,48,55,57)        -60.2095         estimate D2E/DX2                !
 ! D148  D(42,48,55,58)        179.9652         estimate D2E/DX2                !
 ! D149  D(49,48,55,56)        -61.9433         estimate D2E/DX2                !
 ! D150  D(49,48,55,57)        177.6715         estimate D2E/DX2                !
 ! D151  D(49,48,55,58)         57.8463         estimate D2E/DX2                !
 ! D152  D(50,48,55,56)       -177.6221         estimate D2E/DX2                !
 ! D153  D(50,48,55,57)         61.9926         estimate D2E/DX2                !
 ! D154  D(50,48,55,58)        -57.8326         estimate D2E/DX2                !
 --------------------------------------------------------------------------------
 Trust Radius=3.00D-01 FncErr=1.00D-07 GrdErr=1.00D-06 EigMax=2.50D+02 EigMin=1.00D-04
 Number of steps in this run=    331 maximum allowed number of steps=    348.
 GradGradGradGradGradGradGradGradGradGradGradGradGradGradGradGradGradGrad

 Stoichiometry    C24H34
 Framework group  C1[X(C24H34)]
 Deg. of freedom   168
 Full point group                 C1      NOp   1
 Largest Abelian subgroup         C1      NOp   1
 Largest concise Abelian subgroup C1      NOp   1
                         Standard orientation:                         
 ---------------------------------------------------------------------
 Center     Atomic      Atomic             Coordinates (Angstroms)
 Number     Number       Type             X           Y           Z
 ---------------------------------------------------------------------
      1          6           0       -4.770759   -0.924457   -0.056600
      2          6           0       -5.861667   -1.460102    0.623913
      3          6           0       -5.649166   -2.338503    1.682695
      4          6           0       -4.355763   -2.684287    2.064014
      5          6           0       -3.268555   -2.146848    1.379171
      6          6           0       -3.460793   -1.260365    0.310907
      7          1           0       -6.494139   -2.754816    2.212381
      8          1           0       -2.269212   -2.411235    1.692215
      9          1           0       -6.867179   -1.197153    0.328830
     10          1           0       -4.947287   -0.254403   -0.885114
     11          6           0       -0.092960    0.400365   -1.794892
     12          6           0       -0.055680   -0.925869   -1.361952
     13          6           0       -1.152567   -1.457788   -0.678917
     14          6           0       -2.293550   -0.685141   -0.420770
     15          6           0       -2.306337    0.643916   -0.866487
     16          6           0       -1.216248    1.191423   -1.548227
     17          1           0       -1.120576   -2.487163   -0.354248
     18          1           0       -3.164923    1.266625   -0.664265
     19          1           0       -4.195186   -3.363461    2.888680
     20          1           0        0.756382    0.819789   -2.314142
     21          6           0        1.173588   -1.781472   -1.624268
     22          1           0        0.865376   -2.820790   -1.750484
     23          1           0        1.608450   -1.493581   -2.582885
     24          6           0       -1.251005    2.642259   -2.008248
     25          1           0       -2.246182    2.851524   -2.403803
     26          1           0       -0.579357    2.775761   -2.857987
     27          6           0        2.221244   -1.663838   -0.502627
     28          1           0        2.515033   -0.618360   -0.390616
     29          1           0        1.767927   -1.953763    0.447141
     30          6           0       -0.911471    3.653349   -0.894008
     31          1           0       -1.072401    4.661922   -1.278305
     32          1           0       -1.615631    3.533486   -0.068477
     33          6           0        3.470841   -2.524411   -0.760173
     34          1           0        3.175603   -3.569447   -0.871086
     35          1           0        3.922788   -2.233250   -1.710159
     36          6           0        0.531273    3.540421   -0.363655
     37          1           0        0.686602    2.546251    0.059653
     38          1           0        1.232537    3.629528   -1.195159
     39          6           0        4.517165   -2.404777    0.361811
     40          1           0        4.812525   -1.359740    0.473249
     41          1           0        4.065651   -2.695542    1.312192
     42          6           0        0.859978    4.600470    0.701999
     43          1           0        0.157741    4.508739    1.532666
     44          1           0        0.708261    5.597102    0.283509
     45          6           0        5.766499   -3.264579    0.104820
     46          1           0        5.476631   -4.311153   -0.004590
     47          1           0        6.223429   -2.975526   -0.843324
     48          6           0        2.298500    4.481919    1.233762
     49          1           0        2.452673    3.487409    1.656272
     50          1           0        3.005108    4.573135    0.406925
     51          6           0        6.809014   -3.143936    1.225131
     52          1           0        6.400447   -3.464736    2.184183
     53          1           0        7.154734   -2.115510    1.336878
     54          1           0        7.681543   -3.763512    1.015322
     55          6           0        2.625886    5.539209    2.297575
     56          1           0        1.964930    5.451602    3.160711
     57          1           0        2.522601    6.549158    1.898954
     58          1           0        3.650304    5.429373    2.655028
 ---------------------------------------------------------------------
 Rotational constants (GHZ):           0.1707675           0.1161000           0.0805426
 Standard basis: def2TZVP (5D, 7F)
 There are  1068 symmetry adapted cartesian basis functions of A   symmetry.
 There are   948 symmetry adapted basis functions of A   symmetry.
   948 basis functions,  1496 primitive gaussians,  1068 cartesian basis functions
    89 alpha electrons       89 beta electrons
       nuclear repulsion energy      1887.2622900791 Hartrees.
 NAtoms=   58 NActive=   58 NUniq=   58 SFac= 1.00D+00 NAtFMM=   60 NAOKFM=F Big=F
 Integral buffers will be    131072 words long.
 Raffenetti 2 integral format.
 Two-electron integral symmetry is turned on.
 One-electron integrals computed using PRISM.
   1 Symmetry operations used in ECPInt.
 ECPInt:  NShTT=   80200 NPrTT=  234900 LenC2=   61142 LenP2D=  123445.
 LDataN:  DoStor=T MaxTD1= 6 Len=  172
 Number of processors reduced to  25 by ecpmxn.
 NBasis=   948 RedAO= T EigKep=  5.70D-06  NBF=   948
 NBsUse=   948 1.00D-06 EigRej= -1.00D+00 NBFU=   948
 ExpMin= 9.52D-02 ExpMax= 1.36D+04 ExpMxC= 4.63D+02 IAcc=3 IRadAn=         5 AccDes= 0.00D+00
 Harris functional with IExCor= 1009 and IRadAn=       5 diagonalized for initial guess.
 HarFok:  IExCor= 1009 AccDes= 0.00D+00 IRadAn=         5 IDoV= 1 UseB2=F ITyADJ=14
 ICtDFT=  3500011 ScaDFX=  1.000000  1.000000  1.000000  1.000000
 FoFCou: FMM=F IPFlag=           0 FMFlag=      100000 FMFlg1=           0
         NFxFlg=           0 DoJE=T BraDBF=F KetDBF=T FulRan=T
         wScrn=  0.000000 ICntrl=       500 IOpCl=  0 I1Cent=   200000004 NGrid=           0
         NMat0=    1 NMatS0=      1 NMatT0=    0 NMatD0=    1 NMtDS0=    0 NMtDT0=    0
 Petite list used in FoFCou.
 Requested convergence on RMS density matrix=1.00D-08 within 128 cycles.
 Requested convergence on MAX density matrix=1.00D-06.
 Requested convergence on             energy=1.00D-06.
 No special actions if energy rises.
 Integral accuracy reduced to 1.0D-05 until final iterations.
 Rare condition: small coef for last iteration:  0.000D+00
 Rare condition: small coef for last iteration:  0.000D+00
 Rare condition: small coef for last iteration:  0.000D+00
 Rare condition: small coef for last iteration:  0.000D+00
 Rare condition: small coef for last iteration:  0.000D+00
 Rare condition: small coef for last iteration:  0.000D+00
 Problem detected with inexpensive integrals.
 Switching to full accuracy and repeating last cycle.
 SCF Done:  E(RM062X) =  -934.957228895     A.U. after   29 cycles
            NFock= 29  Conv=0.30D-08     -V/T= 2.0056

 **********************************************************************

            Population analysis using the SCF Density.

 **********************************************************************

 Orbital symmetries:
       Occupied  (A) (A) (A) (A) (A) (A) (A) (A) (A) (A) (A) (A)
                 (A) (A) (A) (A) (A) (A) (A) (A) (A) (A) (A) (A)
                 (A) (A) (A) (A) (A) (A) (A) (A) (A) (A) (A) (A)
                 (A) (A) (A) (A) (A) (A) (A) (A) (A) (A) (A) (A)
                 (A) (A) (A) (A) (A) (A) (A) (A) (A) (A) (A) (A)
                 (A) (A) (A) (A) (A) (A) (A) (A) (A) (A) (A) (A)
                 (A) (A) (A) (A) (A) (A) (A) (A) (A) (A) (A) (A)
                 (A) (A) (A) (A) (A)
       Virtual   (A) (A) (A) (A) (A) (A) (A) (A) (A) (A) (A) (A)
                 (A) (A) (A) (A) (A) (A) (A) (A) (A) (A) (A) (A)
                 (A) (A) (A) (A) (A) (A) (A) (A) (A) (A) (A) (A)
                 (A) (A) (A) (A) (A) (A) (A) (A) (A) (A) (A) (A)
                 (A) (A) (A) (A) (A) (A) (A) (A) (A) (A) (A) (A)
                 (A) (A) (A) (A) (A) (A) (A) (A) (A) (A) (A) (A)
                 (A) (A) (A) (A) (A) (A) (A) (A) (A) (A) (A) (A)
                 (A) (A) (A) (A) (A) (A) (A) (A) (A) (A) (A) (A)
                 (A) (A) (A) (A) (A) (A) (A) (A) (A) (A) (A) (A)
                 (A) (A) (A) (A) (A) (A) (A) (A) (A) (A) (A) (A)
                 (A) (A) (A) (A) (A) (A) (A) (A) (A) (A) (A) (A)
                 (A) (A) (A) (A) (A) (A) (A) (A) (A) (A) (A) (A)
                 (A) (A) (A) (A) (A) (A) (A) (A) (A) (A) (A) (A)
                 (A) (A) (A) (A) (A) (A) (A) (A) (A) (A) (A) (A)
                 (A) (A) (A) (A) (A) (A) (A) (A) (A) (A) (A) (A)
                 (A) (A) (A) (A) (A) (A) (A) (A) (A) (A) (A) (A)
                 (A) (A) (A) (A) (A) (A) (A) (A) (A) (A) (A) (A)
                 (A) (A) (A) (A) (A) (A) (A) (A) (A) (A) (A) (A)
                 (A) (A) (A) (A) (A) (A) (A) (A) (A) (A) (A) (A)
                 (A) (A) (A) (A) (A) (A) (A) (A) (A) (A) (A) (A)
                 (A) (A) (A) (A) (A) (A) (A) (A) (A) (A) (A) (A)
                 (A) (A) (A) (A) (A) (A) (A) (A) (A) (A) (A) (A)
                 (A) (A) (A) (A) (A) (A) (A) (A) (A) (A) (A) (A)
                 (A) (A) (A) (A) (A) (A) (A) (A) (A) (A) (A) (A)
                 (A) (A) (A) (A) (A) (A) (A) (A) (A) (A) (A) (A)
                 (A) (A) (A) (A) (A) (A) (A) (A) (A) (A) (A) (A)
                 (A) (A) (A) (A) (A) (A) (A) (A) (A) (A) (A) (A)
                 (A) (A) (A) (A) (A) (A) (A) (A) (A) (A) (A) (A)
                 (A) (A) (A) (A) (A) (A) (A) (A) (A) (A) (A) (A)
                 (A) (A) (A) (A) (A) (A) (A) (A) (A) (A) (A) (A)
                 (A) (A) (A) (A) (A) (A) (A) (A) (A) (A) (A) (A)
                 (A) (A) (A) (A) (A) (A) (A) (A) (A) (A) (A) (A)
                 (A) (A) (A) (A) (A) (A) (A) (A) (A) (A) (A) (A)
                 (A) (A) (A) (A) (A) (A) (A) (A) (A) (A) (A) (A)
                 (A) (A) (A) (A) (A) (A) (A) (A) (A) (A) (A) (A)
                 (A) (A) (A) (A) (A) (A) (A) (A) (A) (A) (A) (A)
                 (A) (A) (A) (A) (A) (A) (A) (A) (A) (A) (A) (A)
                 (A) (A) (A) (A) (A) (A) (A) (A) (A) (A) (A) (A)
                 (A) (A) (A) (A) (A) (A) (A) (A) (A) (A) (A) (A)
                 (A) (A) (A) (A) (A) (A) (A) (A) (A) (A) (A) (A)
                 (A) (A) (A) (A) (A) (A) (A) (A) (A) (A) (A) (A)
                 (A) (A) (A) (A) (A) (A) (A) (A) (A) (A) (A) (A)
                 (A) (A) (A) (A) (A) (A) (A) (A) (A) (A) (A) (A)
                 (A) (A) (A) (A) (A) (A) (A) (A) (A) (A) (A) (A)
                 (A) (A) (A) (A) (A) (A) (A) (A) (A) (A) (A) (A)
                 (A) (A) (A) (A) (A) (A) (A) (A) (A) (A) (A) (A)
                 (A) (A) (A) (A) (A) (A) (A) (A) (A) (A) (A) (A)
                 (A) (A) (A) (A) (A) (A) (A) (A) (A) (A) (A) (A)
                 (A) (A) (A) (A) (A) (A) (A) (A) (A) (A) (A) (A)
                 (A) (A) (A) (A) (A) (A) (A) (A) (A) (A) (A) (A)
                 (A) (A) (A) (A) (A) (A) (A) (A) (A) (A) (A) (A)
                 (A) (A) (A) (A) (A) (A) (A) (A) (A) (A) (A) (A)
                 (A) (A) (A) (A) (A) (A) (A) (A) (A) (A) (A) (A)
                 (A) (A) (A) (A) (A) (A) (A) (A) (A) (A) (A) (A)
                 (A) (A) (A) (A) (A) (A) (A) (A) (A) (A) (A) (A)
                 (A) (A) (A) (A) (A) (A) (A) (A) (A) (A) (A) (A)
                 (A) (A) (A) (A) (A) (A) (A) (A) (A) (A) (A) (A)
                 (A) (A) (A) (A) (A) (A) (A) (A) (A) (A) (A) (A)
                 (A) (A) (A) (A) (A) (A) (A) (A) (A) (A) (A) (A)
                 (A) (A) (A) (A) (A) (A) (A) (A) (A) (A) (A) (A)
                 (A) (A) (A) (A) (A) (A) (A) (A) (A) (A) (A) (A)
                 (A) (A) (A) (A) (A) (A) (A) (A) (A) (A) (A) (A)
                 (A) (A) (A) (A) (A) (A) (A) (A) (A) (A) (A) (A)
                 (A) (A) (A) (A) (A) (A) (A) (A) (A) (A) (A) (A)
                 (A) (A) (A) (A) (A) (A) (A) (A) (A) (A) (A) (A)
                 (A) (A) (A) (A) (A) (A) (A) (A) (A) (A) (A) (A)
                 (A) (A) (A) (A) (A) (A) (A) (A) (A) (A) (A) (A)
                 (A) (A) (A) (A) (A) (A) (A) (A) (A) (A) (A) (A)
                 (A) (A) (A) (A) (A) (A) (A) (A) (A) (A) (A) (A)
                 (A) (A) (A) (A) (A) (A) (A) (A) (A) (A) (A) (A)
                 (A) (A) (A) (A) (A) (A) (A) (A) (A) (A) (A) (A)
                 (A) (A) (A) (A) (A) (A) (A)
 The electronic state is 1-A.
 Alpha  occ. eigenvalues --  -10.55287 -10.55062 -10.54501 -10.54497 -10.54179
 Alpha  occ. eigenvalues --  -10.54168 -10.54094 -10.54082 -10.53960 -10.53424
 Alpha  occ. eigenvalues --  -10.53406 -10.53401 -10.53391 -10.53209 -10.53050
 Alpha  occ. eigenvalues --  -10.52993 -10.52782 -10.52772 -10.52661 -10.52591
 Alpha  occ. eigenvalues --  -10.52450 -10.52407 -10.51985 -10.51832  -0.97403
 Alpha  occ. eigenvalues --   -0.95404  -0.91167  -0.90469  -0.88437  -0.88213
 Alpha  occ. eigenvalues --   -0.85597  -0.84402  -0.83762  -0.81713  -0.79447
 Alpha  occ. eigenvalues --   -0.78718  -0.73293  -0.73086  -0.70544  -0.69159
 Alpha  occ. eigenvalues --   -0.67654  -0.67158  -0.66056  -0.65866  -0.64715
 Alpha  occ. eigenvalues --   -0.63140  -0.59514  -0.56688  -0.55760  -0.54900
 Alpha  occ. eigenvalues --   -0.54187  -0.53517  -0.51567  -0.51290  -0.50948
 Alpha  occ. eigenvalues --   -0.50034  -0.49689  -0.49477  -0.48848  -0.48407
 Alpha  occ. eigenvalues --   -0.48164  -0.46757  -0.46259  -0.46028  -0.45353
 Alpha  occ. eigenvalues --   -0.45097  -0.44376  -0.44028  -0.43173  -0.41946
 Alpha  occ. eigenvalues --   -0.41682  -0.41530  -0.41315  -0.40521  -0.39993
 Alpha  occ. eigenvalues --   -0.39578  -0.39006  -0.38932  -0.38647  -0.38401
 Alpha  occ. eigenvalues --   -0.38262  -0.38072  -0.37311  -0.36586  -0.35818
 Alpha  occ. eigenvalues --   -0.32619  -0.30826  -0.28869  -0.27422
 Alpha virt. eigenvalues --   -0.00323   0.01893   0.02514   0.05233   0.05734
 Alpha virt. eigenvalues --    0.06780   0.07332   0.07792   0.08180   0.08660
 Alpha virt. eigenvalues --    0.09095   0.09547   0.10112   0.10474   0.10969
 Alpha virt. eigenvalues --    0.11468   0.11918   0.12088   0.12549   0.12943
 Alpha virt. eigenvalues --    0.13414   0.13858   0.14180   0.14621   0.14760
 Alpha virt. eigenvalues --    0.15434   0.15622   0.15737   0.15883   0.16140
 Alpha virt. eigenvalues --    0.16423   0.16519   0.16652   0.17340   0.17670
 Alpha virt. eigenvalues --    0.18094   0.18310   0.18859   0.19163   0.19612
 Alpha virt. eigenvalues --    0.19926   0.20137   0.20448   0.20762   0.21402
 Alpha virt. eigenvalues --    0.21582   0.21748   0.22204   0.22825   0.23369
 Alpha virt. eigenvalues --    0.23870   0.24024   0.24495   0.24930   0.25191
 Alpha virt. eigenvalues --    0.25205   0.25584   0.25987   0.26779   0.26985
 Alpha virt. eigenvalues --    0.27302   0.27756   0.28004   0.28335   0.28351
 Alpha virt. eigenvalues --    0.28995   0.29316   0.29593   0.30165   0.30390
 Alpha virt. eigenvalues --    0.31010   0.31483   0.31593   0.32158   0.32330
 Alpha virt. eigenvalues --    0.32738   0.32854   0.33320   0.33532   0.34177
 Alpha virt. eigenvalues --    0.34332   0.34700   0.34963   0.35291   0.35601
 Alpha virt. eigenvalues --    0.35640   0.36315   0.36975   0.37082   0.37734
 Alpha virt. eigenvalues --    0.38134   0.38709   0.38802   0.39328   0.39499
 Alpha virt. eigenvalues --    0.39702   0.40188   0.40368   0.40771   0.41510
 Alpha virt. eigenvalues --    0.41690   0.42336   0.42922   0.43268   0.43466
 Alpha virt. eigenvalues --    0.43600   0.43897   0.44375   0.44611   0.45000
 Alpha virt. eigenvalues --    0.45110   0.45311   0.45501   0.46089   0.46392
 Alpha virt. eigenvalues --    0.46835   0.47197   0.47365   0.47770   0.48004
 Alpha virt. eigenvalues --    0.48038   0.48635   0.48935   0.49239   0.49643
 Alpha virt. eigenvalues --    0.49742   0.50204   0.50629   0.50937   0.50989
 Alpha virt. eigenvalues --    0.51127   0.51503   0.51806   0.52053   0.52147
 Alpha virt. eigenvalues --    0.52720   0.52869   0.53239   0.53366   0.53702
 Alpha virt. eigenvalues --    0.53730   0.54208   0.54223   0.54427   0.54617
 Alpha virt. eigenvalues --    0.55024   0.55479   0.56075   0.56573   0.56811
 Alpha virt. eigenvalues --    0.57319   0.57776   0.58286   0.58716   0.59700
 Alpha virt. eigenvalues --    0.59961   0.61071   0.61653   0.62274   0.62642
 Alpha virt. eigenvalues --    0.63153   0.63433   0.63735   0.64101   0.64731
 Alpha virt. eigenvalues --    0.65216   0.65910   0.66390   0.66502   0.67263
 Alpha virt. eigenvalues --    0.67838   0.68335   0.68362   0.68982   0.69681
 Alpha virt. eigenvalues --    0.69888   0.70367   0.71505   0.71939   0.73022
 Alpha virt. eigenvalues --    0.73658   0.73952   0.74626   0.74828   0.75611
 Alpha virt. eigenvalues --    0.76113   0.76212   0.76763   0.77435   0.78064
 Alpha virt. eigenvalues --    0.78518   0.79149   0.79660   0.79914   0.81701
 Alpha virt. eigenvalues --    0.81946   0.82601   0.83306   0.83907   0.84352
 Alpha virt. eigenvalues --    0.84860   0.85475   0.86220   0.86378   0.86572
 Alpha virt. eigenvalues --    0.87162   0.87234   0.87566   0.87658   0.88365
 Alpha virt. eigenvalues --    0.89165   0.89596   0.90096   0.90433   0.90894
 Alpha virt. eigenvalues --    0.91970   0.92109   0.92327   0.92741   0.93380
 Alpha virt. eigenvalues --    0.93683   0.94026   0.94258   0.94760   0.95396
 Alpha virt. eigenvalues --    0.95889   0.97697   0.97849   0.98541   0.98871
 Alpha virt. eigenvalues --    0.99409   1.01117   1.02839   1.03247   1.03694
 Alpha virt. eigenvalues --    1.04029   1.04362   1.04888   1.05182   1.05983
 Alpha virt. eigenvalues --    1.06680   1.07632   1.08471   1.09081   1.09866
 Alpha virt. eigenvalues --    1.10346   1.10667   1.11465   1.11688   1.12908
 Alpha virt. eigenvalues --    1.13184   1.13700   1.13851   1.14432   1.14928
 Alpha virt. eigenvalues --    1.15140   1.15557   1.16285   1.16562   1.16765
 Alpha virt. eigenvalues --    1.18038   1.18753   1.19338   1.19382   1.20262
 Alpha virt. eigenvalues --    1.20357   1.20916   1.22189   1.23532   1.23683
 Alpha virt. eigenvalues --    1.24964   1.25346   1.26389   1.26487   1.27542
 Alpha virt. eigenvalues --    1.28011   1.28129   1.29268   1.29784   1.30755
 Alpha virt. eigenvalues --    1.31632   1.32093   1.32278   1.33210   1.33308
 Alpha virt. eigenvalues --    1.33976   1.34735   1.35107   1.35645   1.35966
 Alpha virt. eigenvalues --    1.36372   1.37272   1.37471   1.37678   1.38617
 Alpha virt. eigenvalues --    1.39094   1.40496   1.41054   1.41933   1.43483
 Alpha virt. eigenvalues --    1.44276   1.44870   1.46229   1.47199   1.47816
 Alpha virt. eigenvalues --    1.48928   1.49840   1.50039   1.51321   1.52068
 Alpha virt. eigenvalues --    1.52205   1.53064   1.54729   1.55219   1.55830
 Alpha virt. eigenvalues --    1.56381   1.57458   1.57735   1.58158   1.58246
 Alpha virt. eigenvalues --    1.58459   1.59144   1.59512   1.60271   1.60319
 Alpha virt. eigenvalues --    1.60672   1.61047   1.61310   1.61896   1.61934
 Alpha virt. eigenvalues --    1.62246   1.62763   1.63629   1.64148   1.64754
 Alpha virt. eigenvalues --    1.64859   1.65453   1.65689   1.66259   1.66730
 Alpha virt. eigenvalues --    1.67028   1.67667   1.68128   1.68339   1.68816
 Alpha virt. eigenvalues --    1.69480   1.69645   1.70907   1.71716   1.72786
 Alpha virt. eigenvalues --    1.73483   1.74493   1.75009   1.75487   1.76455
 Alpha virt. eigenvalues --    1.76907   1.76996   1.77546   1.77702   1.77986
 Alpha virt. eigenvalues --    1.78588   1.80675   1.81635   1.81978   1.82720
 Alpha virt. eigenvalues --    1.83422   1.84011   1.85568   1.85865   1.86818
 Alpha virt. eigenvalues --    1.87074   1.87273   1.87685   1.88967   1.89028
 Alpha virt. eigenvalues --    1.89283   1.89912   1.90623   1.90955   1.91222
 Alpha virt. eigenvalues --    1.91586   1.92331   1.92665   1.93344   1.94252
 Alpha virt. eigenvalues --    1.94715   1.95150   1.95940   1.96713   1.96945
 Alpha virt. eigenvalues --    1.97334   1.98007   1.98627   1.99651   2.00384
 Alpha virt. eigenvalues --    2.01019   2.01244   2.01929   2.02696   2.02982
 Alpha virt. eigenvalues --    2.03624   2.04963   2.05423   2.06116   2.06674
 Alpha virt. eigenvalues --    2.07469   2.08164   2.09660   2.10642   2.11081
 Alpha virt. eigenvalues --    2.11945   2.12318   2.12504   2.13253   2.14201
 Alpha virt. eigenvalues --    2.14337   2.14987   2.15993   2.17814   2.18849
 Alpha virt. eigenvalues --    2.20033   2.20334   2.21864   2.22116   2.22527
 Alpha virt. eigenvalues --    2.23315   2.23449   2.24493   2.25974   2.26227
 Alpha virt. eigenvalues --    2.27087   2.27260   2.27995   2.28493   2.29247
 Alpha virt. eigenvalues --    2.30040   2.31818   2.32550   2.33231   2.33580
 Alpha virt. eigenvalues --    2.35358   2.35635   2.35907   2.36091   2.36374
 Alpha virt. eigenvalues --    2.37415   2.37948   2.38656   2.39039   2.39392
 Alpha virt. eigenvalues --    2.40068   2.41527   2.42673   2.43156   2.43521
 Alpha virt. eigenvalues --    2.43967   2.46064   2.46234   2.46867   2.47698
 Alpha virt. eigenvalues --    2.48302   2.48733   2.48796   2.49744   2.50110
 Alpha virt. eigenvalues --    2.50435   2.50607   2.51336   2.51944   2.52550
 Alpha virt. eigenvalues --    2.53077   2.53633   2.54386   2.54646   2.54891
 Alpha virt. eigenvalues --    2.55102   2.55622   2.55834   2.56456   2.57048
 Alpha virt. eigenvalues --    2.57176   2.57939   2.58224   2.59425   2.59919
 Alpha virt. eigenvalues --    2.60498   2.60750   2.61257   2.61362   2.61934
 Alpha virt. eigenvalues --    2.62307   2.63346   2.63464   2.63751   2.64326
 Alpha virt. eigenvalues --    2.64856   2.64963   2.65917   2.66005   2.66488
 Alpha virt. eigenvalues --    2.66933   2.67247   2.67526   2.67942   2.68485
 Alpha virt. eigenvalues --    2.68766   2.68877   2.69178   2.69958   2.70273
 Alpha virt. eigenvalues --    2.70571   2.71220   2.71673   2.72039   2.72423
 Alpha virt. eigenvalues --    2.72931   2.73479   2.73777   2.74234   2.74627
 Alpha virt. eigenvalues --    2.75040   2.75229   2.75602   2.75968   2.76658
 Alpha virt. eigenvalues --    2.77202   2.77439   2.77738   2.78159   2.78250
 Alpha virt. eigenvalues --    2.78619   2.78966   2.79479   2.80286   2.80479
 Alpha virt. eigenvalues --    2.81039   2.81398   2.82621   2.82877   2.83407
 Alpha virt. eigenvalues --    2.83829   2.85271   2.85628   2.86565   2.86651
 Alpha virt. eigenvalues --    2.87167   2.88369   2.89271   2.90271   2.90526
 Alpha virt. eigenvalues --    2.91069   2.91741   2.91994   2.93083   2.93523
 Alpha virt. eigenvalues --    2.94742   2.95043   2.96926   2.97213   2.98066
 Alpha virt. eigenvalues --    2.99472   3.01308   3.02064   3.02736   3.03912
 Alpha virt. eigenvalues --    3.04296   3.04872   3.05558   3.05846   3.06654
 Alpha virt. eigenvalues --    3.06990   3.07906   3.08781   3.09589   3.10225
 Alpha virt. eigenvalues --    3.10778   3.11153   3.11754   3.12241   3.13033
 Alpha virt. eigenvalues --    3.13545   3.14095   3.14600   3.15189   3.15420
 Alpha virt. eigenvalues --    3.15617   3.16186   3.16324   3.16880   3.16987
 Alpha virt. eigenvalues --    3.17925   3.18592   3.18996   3.19270   3.20155
 Alpha virt. eigenvalues --    3.20516   3.20906   3.21238   3.21691   3.21787
 Alpha virt. eigenvalues --    3.22386   3.23086   3.23420   3.23890   3.24336
 Alpha virt. eigenvalues --    3.25043   3.25598   3.25787   3.26675   3.27746
 Alpha virt. eigenvalues --    3.27977   3.28382   3.29447   3.29630   3.30083
 Alpha virt. eigenvalues --    3.30347   3.30666   3.31333   3.31930   3.32027
 Alpha virt. eigenvalues --    3.32501   3.32668   3.32922   3.33318   3.33801
 Alpha virt. eigenvalues --    3.34423   3.34825   3.35020   3.35572   3.36287
 Alpha virt. eigenvalues --    3.37136   3.37421   3.38407   3.38874   3.38986
 Alpha virt. eigenvalues --    3.39635   3.40072   3.40336   3.40876   3.41420
 Alpha virt. eigenvalues --    3.41639   3.42082   3.42648   3.42919   3.43352
 Alpha virt. eigenvalues --    3.43860   3.44005   3.44726   3.45299   3.45591
 Alpha virt. eigenvalues --    3.46131   3.46912   3.47666   3.48119   3.48394
 Alpha virt. eigenvalues --    3.48949   3.49655   3.50070   3.50564   3.50611
 Alpha virt. eigenvalues --    3.51167   3.52307   3.52658   3.52840   3.53385
 Alpha virt. eigenvalues --    3.53900   3.54440   3.54910   3.55100   3.55668
 Alpha virt. eigenvalues --    3.56061   3.56228   3.57736   3.57995   3.58116
 Alpha virt. eigenvalues --    3.58411   3.59403   3.59878   3.60317   3.60798
 Alpha virt. eigenvalues --    3.61312   3.61707   3.62134   3.62931   3.64195
 Alpha virt. eigenvalues --    3.64391   3.65536   3.66296   3.67386   3.68175
 Alpha virt. eigenvalues --    3.68692   3.69805   3.70176   3.71882   3.74606
 Alpha virt. eigenvalues --    3.75629   3.75822   3.76485   3.77672   3.79539
 Alpha virt. eigenvalues --    3.79831   3.80646   3.82201   3.82702   3.83686
 Alpha virt. eigenvalues --    3.84388   3.85439   3.85755   3.86664   3.87100
 Alpha virt. eigenvalues --    3.88145   3.88375   3.89513   3.90419   3.90768
 Alpha virt. eigenvalues --    3.91642   3.92170   3.92531   3.93450   3.94258
 Alpha virt. eigenvalues --    3.95659   3.95826   3.96843   3.97429   3.98457
 Alpha virt. eigenvalues --    3.99219   3.99918   4.00578   4.00878   4.01820
 Alpha virt. eigenvalues --    4.04075   4.04624   4.05387   4.06717   4.07767
 Alpha virt. eigenvalues --    4.08317   4.09250   4.10686   4.10932   4.12226
 Alpha virt. eigenvalues --    4.12353   4.14075   4.15322   4.16318   4.16880
 Alpha virt. eigenvalues --    4.17800   4.18111   4.18621   4.19458   4.20093
 Alpha virt. eigenvalues --    4.20191   4.20557   4.21313   4.22208   4.23374
 Alpha virt. eigenvalues --    4.24270   4.24765   4.25259   4.26225   4.27510
 Alpha virt. eigenvalues --    4.29613   4.30672   4.31601   4.32922   4.33532
 Alpha virt. eigenvalues --    4.35688   4.36396   4.36797   4.38557   4.38770
 Alpha virt. eigenvalues --    4.39451   4.40686   4.41996   4.44896   4.45252
 Alpha virt. eigenvalues --    4.47639   4.49211   4.50392   4.50801   4.51050
 Alpha virt. eigenvalues --    4.53196   4.55039   4.55760   4.56631   4.57294
 Alpha virt. eigenvalues --    4.57616   4.58248   4.58951   4.59693   4.59785
 Alpha virt. eigenvalues --    4.60417   4.61364   4.61538   4.62221   4.63996
 Alpha virt. eigenvalues --    4.65896   4.66005   4.66452   4.67670   4.67966
 Alpha virt. eigenvalues --    4.69316   4.70654   4.72102   4.74112   4.75232
 Alpha virt. eigenvalues --    4.76197   4.79058   4.80522   4.82495   4.85247
 Alpha virt. eigenvalues --    4.86506   4.88364   4.88702   4.90126   4.90549
 Alpha virt. eigenvalues --    4.99430   5.02492   5.06336   5.07905   5.12172
 Alpha virt. eigenvalues --    5.12883   5.14644   5.17580   5.22223   5.24842
 Alpha virt. eigenvalues --    5.26692   5.28800   5.35696   5.38135   5.41811
 Alpha virt. eigenvalues --    5.43109   5.48341   5.55799   5.59823   5.76035
 Alpha virt. eigenvalues --   22.17254  22.41488  22.41871  22.44286  22.47759
 Alpha virt. eigenvalues --   22.49322  22.56462  22.57525  22.59047  22.59761
 Alpha virt. eigenvalues --   22.61849  22.64428  22.68557  22.68862  22.71578
 Alpha virt. eigenvalues --   22.73295  22.84824  22.87720  22.95906  22.96441
 Alpha virt. eigenvalues --   23.11682  23.12642  23.31780  23.48937
          Condensed to atoms (all electrons):
 Mulliken charges:
               1
     1  C   -0.210587
     2  C   -0.152679
     3  C   -0.146157
     4  C   -0.153440
     5  C   -0.210647
     6  C    0.101042
     7  H    0.140770
     8  H    0.162657
     9  H    0.143475
    10  H    0.163505
    11  C   -0.275294
    12  C    0.202743
    13  C   -0.284330
    14  C    0.130891
    15  C   -0.259301
    16  C    0.136761
    17  H    0.171579
    18  H    0.174391
    19  H    0.143292
    20  H    0.164138
    21  C   -0.456820
    22  H    0.167754
    23  H    0.167879
    24  C   -0.424193
    25  H    0.164898
    26  H    0.171944
    27  C   -0.276275
    28  H    0.152263
    29  H    0.153146
    30  C   -0.258799
    31  H    0.139471
    32  H    0.154128
    33  C   -0.283689
    34  H    0.141649
    35  H    0.141249
    36  C   -0.299424
    37  H    0.158074
    38  H    0.136843
    39  C   -0.278587
    40  H    0.137454
    41  H    0.137169
    42  C   -0.279686
    43  H    0.139039
    44  H    0.136073
    45  C   -0.238363
    46  H    0.130409
    47  H    0.130351
    48  C   -0.236910
    49  H    0.131895
    50  H    0.128254
    51  C   -0.427470
    52  H    0.136079
    53  H    0.136096
    54  H    0.141016
    55  C   -0.428379
    56  H    0.136856
    57  H    0.135356
    58  H    0.140441
 Sum of Mulliken charges =  -0.00000
 Mulliken charges with hydrogens summed into heavy atoms:
               1
     1  C   -0.047081
     2  C   -0.009204
     3  C   -0.005388
     4  C   -0.010148
     5  C   -0.047990
     6  C    0.101042
    11  C   -0.111156
    12  C    0.202743
    13  C   -0.112751
    14  C    0.130891
    15  C   -0.084910
    16  C    0.136761
    21  C   -0.121188
    24  C   -0.087350
    27  C    0.029134
    30  C    0.034800
    33  C   -0.000791
    36  C   -0.004506
    39  C   -0.003964
    42  C   -0.004575
    45  C    0.022397
    48  C    0.023239
    51  C   -0.014279
    55  C   -0.015726
 Electronic spatial extent (au):  <R**2>=          14199.1751
 Charge=             -0.0000 electrons
 Dipole moment (field-independent basis, Debye):
    X=              0.4761    Y=              0.1209    Z=             -0.0666  Tot=              0.4957
 Quadrupole moment (field-independent basis, Debye-Ang):
   XX=           -144.5642   YY=           -147.2539   ZZ=           -151.3008
   XY=             -1.7007   XZ=             -3.3500   YZ=             -6.8198
 Traceless Quadrupole moment (field-independent basis, Debye-Ang):
   XX=              3.1421   YY=              0.4524   ZZ=             -3.5945
   XY=             -1.7007   XZ=             -3.3500   YZ=             -6.8198
 Octapole moment (field-independent basis, Debye-Ang**2):
  XXX=            -55.5687  YYY=             -1.4325  ZZZ=              5.1621  XYY=              4.4093
  XXY=             -0.6022  XXZ=             -1.2471  XZZ=              4.1934  YZZ=             -4.4932
  YYZ=              3.7100  XYZ=             19.3359
 Hexadecapole moment (field-independent basis, Debye-Ang**3):
 XXXX=         -10607.7909 YYYY=          -7311.6817 ZZZZ=          -1709.5327 XXXY=             74.1874
 XXXZ=           -105.6932 YYYX=            -64.2281 YYYZ=           -112.7918 ZZZX=            -39.0750
 ZZZY=            -52.1744 XXYY=          -3077.5887 XXZZ=          -2142.2714 YYZZ=          -1473.0526
 XXYZ=            -99.3189 YYXZ=            -71.1788 ZZXY=             32.4232
 N-N= 1.887262290079D+03 E-N=-5.939479076943D+03  KE= 9.297266098096D+02
 ******************************Gaussian NBO Version 3.1******************************
             N A T U R A L   A T O M I C   O R B I T A L   A N D
          N A T U R A L   B O N D   O R B I T A L   A N A L Y S I S
 ******************************Gaussian NBO Version 3.1******************************
       /RESON  / : Allow strongly delocalized NBO set

 Analyzing the SCF density

 Job title: Structure697                                                    

 Storage needed:   2707210 in NPA,   3601055 in NBO (1048558600 available)
 GSVD:  LWork=      330534 too small for GESVD, short by      801027 words or      801027 for optimal perf.


 NATURAL POPULATIONS:  Natural atomic orbital occupancies 
                                                          
   NAO  Atom  No  lang   Type(AO)    Occupancy      Energy
 ----------------------------------------------------------
     1    C    1  S      Cor( 1S)     1.99916     -10.37928
     2    C    1  S      Val( 2S)     0.96964      -0.22503
     3    C    1  S      Ryd( 4S)     0.00091       1.46529
     4    C    1  S      Ryd( 3S)     0.00009       1.45738
     5    C    1  S      Ryd( 5S)     0.00001      21.29557
     6    C    1  px     Val( 2p)     1.04621      -0.05911
     7    C    1  px     Ryd( 3p)     0.00285       1.06892
     8    C    1  px     Ryd( 4p)     0.00025       2.67584
     9    C    1  py     Val( 2p)     1.06502      -0.09656
    10    C    1  py     Ryd( 3p)     0.00270       0.90498
    11    C    1  py     Ryd( 4p)     0.00025       1.83662
    12    C    1  pz     Val( 2p)     1.09902      -0.08572
    13    C    1  pz     Ryd( 3p)     0.00299       0.99591
    14    C    1  pz     Ryd( 4p)     0.00023       1.99384
    15    C    1  dxy    Ryd( 3d)     0.00088       1.55957
    16    C    1  dxy    Ryd( 4d)     0.00030       3.20841
    17    C    1  dxz    Ryd( 3d)     0.00125       1.62895
    18    C    1  dxz    Ryd( 4d)     0.00032       3.30556
    19    C    1  dyz    Ryd( 3d)     0.00081       1.68124
    20    C    1  dyz    Ryd( 4d)     0.00030       3.33448
    21    C    1  dx2y2  Ryd( 3d)     0.00129       1.69026
    22    C    1  dx2y2  Ryd( 4d)     0.00036       3.47171
    23    C    1  dz2    Ryd( 3d)     0.00070       1.49286
    24    C    1  dz2    Ryd( 4d)     0.00025       3.11470
    25    C    1  f(0)   Ryd( 4f)     0.00008       3.47921
    26    C    1  f(C1)  Ryd( 4f)     0.00004       3.73089
    27    C    1  f(S1)  Ryd( 4f)     0.00022       3.51083
    28    C    1  f(C2)  Ryd( 4f)     0.00018       3.74859
    29    C    1  f(S2)  Ryd( 4f)     0.00010       3.75756
    30    C    1  f(C3)  Ryd( 4f)     0.00010       3.77874
    31    C    1  f(S3)  Ryd( 4f)     0.00017       3.75767
 
    32    C    2  S      Cor( 1S)     1.99924     -10.38047
    33    C    2  S      Val( 2S)     0.97554      -0.23216
    34    C    2  S      Ryd( 3S)     0.00084       1.18947
    35    C    2  S      Ryd( 4S)     0.00008       1.29682
    36    C    2  S      Ryd( 5S)     0.00000      21.63920
    37    C    2  px     Val( 2p)     1.15369      -0.06809
    38    C    2  px     Ryd( 3p)     0.00440       1.17762
    39    C    2  px     Ryd( 4p)     0.00019       2.08961
    40    C    2  py     Val( 2p)     1.02430      -0.09338
    41    C    2  py     Ryd( 3p)     0.00240       0.84274
    42    C    2  py     Ryd( 4p)     0.00029       1.70477
    43    C    2  pz     Val( 2p)     1.03450      -0.08300
    44    C    2  pz     Ryd( 3p)     0.00292       0.90872
    45    C    2  pz     Ryd( 4p)     0.00028       1.88832
    46    C    2  dxy    Ryd( 3d)     0.00086       1.50951
    47    C    2  dxy    Ryd( 4d)     0.00034       3.12453
    48    C    2  dxz    Ryd( 3d)     0.00117       1.59813
    49    C    2  dxz    Ryd( 4d)     0.00042       3.23603
    50    C    2  dyz    Ryd( 3d)     0.00101       1.66057
    51    C    2  dyz    Ryd( 4d)     0.00015       3.41658
    52    C    2  dx2y2  Ryd( 3d)     0.00089       1.65817
    53    C    2  dx2y2  Ryd( 4d)     0.00044       3.29684
    54    C    2  dz2    Ryd( 3d)     0.00044       1.52864
    55    C    2  dz2    Ryd( 4d)     0.00032       3.12246
    56    C    2  f(0)   Ryd( 4f)     0.00008       3.58430
    57    C    2  f(C1)  Ryd( 4f)     0.00004       3.62230
    58    C    2  f(S1)  Ryd( 4f)     0.00018       3.63358
    59    C    2  f(C2)  Ryd( 4f)     0.00015       3.73641
    60    C    2  f(S2)  Ryd( 4f)     0.00019       3.75801
    61    C    2  f(C3)  Ryd( 4f)     0.00008       3.61302
    62    C    2  f(S3)  Ryd( 4f)     0.00005       3.61655
 
    63    C    3  S      Cor( 1S)     1.99924     -10.37905
    64    C    3  S      Val( 2S)     0.97605      -0.23258
    65    C    3  S      Ryd( 3S)     0.00086       1.20454
    66    C    3  S      Ryd( 4S)     0.00008       1.32817
    67    C    3  S      Ryd( 5S)     0.00000      21.61501
    68    C    3  px     Val( 2p)     1.12250      -0.06571
    69    C    3  px     Ryd( 3p)     0.00424       1.12170
    70    C    3  px     Ryd( 4p)     0.00022       2.16949
    71    C    3  py     Val( 2p)     1.03968      -0.09388
    72    C    3  py     Ryd( 3p)     0.00262       0.84474
    73    C    3  py     Ryd( 4p)     0.00036       1.69882
    74    C    3  pz     Val( 2p)     1.05812      -0.08432
    75    C    3  pz     Ryd( 3p)     0.00309       0.92324
    76    C    3  pz     Ryd( 4p)     0.00030       1.85725
    77    C    3  dxy    Ryd( 3d)     0.00056       1.64182
    78    C    3  dxy    Ryd( 4d)     0.00037       3.13818
    79    C    3  dxz    Ryd( 3d)     0.00071       1.75879
    80    C    3  dxz    Ryd( 4d)     0.00050       3.27119
    81    C    3  dyz    Ryd( 3d)     0.00106       1.66074
    82    C    3  dyz    Ryd( 4d)     0.00016       3.31207
    83    C    3  dx2y2  Ryd( 3d)     0.00114       1.64207
    84    C    3  dx2y2  Ryd( 4d)     0.00035       3.20214
    85    C    3  dz2    Ryd( 3d)     0.00062       1.51375
    86    C    3  dz2    Ryd( 4d)     0.00027       3.00656
    87    C    3  f(0)   Ryd( 4f)     0.00008       3.57381
    88    C    3  f(C1)  Ryd( 4f)     0.00004       3.58828
    89    C    3  f(S1)  Ryd( 4f)     0.00017       3.62779
    90    C    3  f(C2)  Ryd( 4f)     0.00014       3.74100
    91    C    3  f(S2)  Ryd( 4f)     0.00017       3.69148
    92    C    3  f(C3)  Ryd( 4f)     0.00009       3.63247
    93    C    3  f(S3)  Ryd( 4f)     0.00007       3.66387
 
    94    C    4  S      Cor( 1S)     1.99924     -10.38052
    95    C    4  S      Val( 2S)     0.97545      -0.23218
    96    C    4  S      Ryd( 3S)     0.00084       1.18872
    97    C    4  S      Ryd( 4S)     0.00007       1.29602
    98    C    4  S      Ryd( 5S)     0.00000      21.64035
    99    C    4  px     Val( 2p)     1.05009      -0.06131
   100    C    4  px     Ryd( 3p)     0.00381       1.01774
   101    C    4  px     Ryd( 4p)     0.00024       2.26123
   102    C    4  py     Val( 2p)     1.06388      -0.09600
   103    C    4  py     Ryd( 3p)     0.00264       0.90856
   104    C    4  py     Ryd( 4p)     0.00028       1.62901
   105    C    4  pz     Val( 2p)     1.09872      -0.08740
   106    C    4  pz     Ryd( 3p)     0.00327       1.00123
   107    C    4  pz     Ryd( 4p)     0.00024       1.79386
   108    C    4  dxy    Ryd( 3d)     0.00090       1.53260
   109    C    4  dxy    Ryd( 4d)     0.00032       3.15853
   110    C    4  dxz    Ryd( 3d)     0.00127       1.58624
   111    C    4  dxz    Ryd( 4d)     0.00039       3.23877
   112    C    4  dyz    Ryd( 3d)     0.00073       1.64271
   113    C    4  dyz    Ryd( 4d)     0.00033       3.31067
   114    C    4  dx2y2  Ryd( 3d)     0.00091       1.71590
   115    C    4  dx2y2  Ryd( 4d)     0.00034       3.41395
   116    C    4  dz2    Ryd( 3d)     0.00054       1.48202
   117    C    4  dz2    Ryd( 4d)     0.00028       3.06972
   118    C    4  f(0)   Ryd( 4f)     0.00008       3.47079
   119    C    4  f(C1)  Ryd( 4f)     0.00005       3.68184
   120    C    4  f(S1)  Ryd( 4f)     0.00019       3.49390
   121    C    4  f(C2)  Ryd( 4f)     0.00014       3.73255
   122    C    4  f(S2)  Ryd( 4f)     0.00009       3.75919
   123    C    4  f(C3)  Ryd( 4f)     0.00009       3.69465
   124    C    4  f(S3)  Ryd( 4f)     0.00011       3.73111
 
   125    C    5  S      Cor( 1S)     1.99916     -10.37941
   126    C    5  S      Val( 2S)     0.96950      -0.22506
   127    C    5  S      Ryd( 4S)     0.00091       1.46503
   128    C    5  S      Ryd( 3S)     0.00009       1.44814
   129    C    5  S      Ryd( 5S)     0.00001      21.29486
   130    C    5  px     Val( 2p)     1.15453      -0.06887
   131    C    5  px     Ryd( 3p)     0.00403       1.23295
   132    C    5  px     Ryd( 4p)     0.00013       2.31688
   133    C    5  py     Val( 2p)     1.01894      -0.09195
   134    C    5  py     Ryd( 3p)     0.00212       0.82634
   135    C    5  py     Ryd( 4p)     0.00029       1.96991
   136    C    5  pz     Val( 2p)     1.03715      -0.08102
   137    C    5  pz     Ryd( 3p)     0.00238       0.91193
   138    C    5  pz     Ryd( 4p)     0.00030       2.22672
   139    C    5  dxy    Ryd( 3d)     0.00069       1.57655
   140    C    5  dxy    Ryd( 4d)     0.00028       3.16299
   141    C    5  dxz    Ryd( 3d)     0.00089       1.68975
   142    C    5  dxz    Ryd( 4d)     0.00035       3.30351
   143    C    5  dyz    Ryd( 3d)     0.00145       1.60776
   144    C    5  dyz    Ryd( 4d)     0.00014       3.48900
   145    C    5  dx2y2  Ryd( 3d)     0.00120       1.64246
   146    C    5  dx2y2  Ryd( 4d)     0.00044       3.30553
   147    C    5  dz2    Ryd( 3d)     0.00069       1.53907
   148    C    5  dz2    Ryd( 4d)     0.00031       3.16938
   149    C    5  f(0)   Ryd( 4f)     0.00013       3.62604
   150    C    5  f(C1)  Ryd( 4f)     0.00003       3.65779
   151    C    5  f(S1)  Ryd( 4f)     0.00021       3.70319
   152    C    5  f(C2)  Ryd( 4f)     0.00019       3.77014
   153    C    5  f(S2)  Ryd( 4f)     0.00020       3.73670
   154    C    5  f(C3)  Ryd( 4f)     0.00008       3.62778
   155    C    5  f(S3)  Ryd( 4f)     0.00006       3.64254
 
   156    C    6  S      Cor( 1S)     1.99911     -10.38886
   157    C    6  S      Val( 2S)     0.91088      -0.19842
   158    C    6  S      Ryd( 4S)     0.00078       1.62450
   159    C    6  S      Ryd( 3S)     0.00006       1.48421
   160    C    6  S      Ryd( 5S)     0.00000      21.39010
   161    C    6  px     Val( 2p)     1.05608      -0.05823
   162    C    6  px     Ryd( 3p)     0.00522       1.20100
   163    C    6  px     Ryd( 4p)     0.00051       1.75238
   164    C    6  py     Val( 2p)     1.02442      -0.08868
   165    C    6  py     Ryd( 3p)     0.00409       0.97294
   166    C    6  py     Ryd( 4p)     0.00025       1.48575
   167    C    6  pz     Val( 2p)     1.03721      -0.08050
   168    C    6  pz     Ryd( 3p)     0.00283       0.99455
   169    C    6  pz     Ryd( 4p)     0.00035       1.53261
   170    C    6  dxy    Ryd( 3d)     0.00069       1.79090
   171    C    6  dxy    Ryd( 4d)     0.00039       3.41110
   172    C    6  dxz    Ryd( 3d)     0.00082       1.95703
   173    C    6  dxz    Ryd( 4d)     0.00046       3.50981
   174    C    6  dyz    Ryd( 3d)     0.00070       1.96279
   175    C    6  dyz    Ryd( 4d)     0.00023       3.54698
   176    C    6  dx2y2  Ryd( 3d)     0.00098       2.01896
   177    C    6  dx2y2  Ryd( 4d)     0.00035       3.50220
   178    C    6  dz2    Ryd( 3d)     0.00045       1.50745
   179    C    6  dz2    Ryd( 4d)     0.00035       3.41854
   180    C    6  f(0)   Ryd( 4f)     0.00005       3.75292
   181    C    6  f(C1)  Ryd( 4f)     0.00003       3.78538
   182    C    6  f(S1)  Ryd( 4f)     0.00008       3.77042
   183    C    6  f(C2)  Ryd( 4f)     0.00010       3.94338
   184    C    6  f(S2)  Ryd( 4f)     0.00009       3.94409
   185    C    6  f(C3)  Ryd( 4f)     0.00003       3.94925
   186    C    6  f(S3)  Ryd( 4f)     0.00007       3.84706
 
   187    H    7  S      Val( 1S)     0.78748       0.05329
   188    H    7  S      Ryd( 2S)     0.00031       1.01600
   189    H    7  S      Ryd( 3S)     0.00018       1.77595
   190    H    7  px     Ryd( 2p)     0.00027       2.93535
   191    H    7  py     Ryd( 2p)     0.00011       2.46575
   192    H    7  pz     Ryd( 2p)     0.00014       2.60225
 
   193    H    8  S      Val( 1S)     0.78519       0.05376
   194    H    8  S      Ryd( 3S)     0.00042       1.56278
   195    H    8  S      Ryd( 2S)     0.00014       1.42258
   196    H    8  px     Ryd( 2p)     0.00039       3.01574
   197    H    8  py     Ryd( 2p)     0.00010       2.47242
   198    H    8  pz     Ryd( 2p)     0.00011       2.61175
 
   199    H    9  S      Val( 1S)     0.78544       0.05267
   200    H    9  S      Ryd( 2S)     0.00032       1.10715
   201    H    9  S      Ryd( 3S)     0.00019       1.67750
   202    H    9  px     Ryd( 2p)     0.00036       3.01121
   203    H    9  py     Ryd( 2p)     0.00008       2.44115
   204    H    9  pz     Ryd( 2p)     0.00008       2.56059
 
   205    H   10  S      Val( 1S)     0.78476       0.05431
   206    H   10  S      Ryd( 3S)     0.00042       1.57670
   207    H   10  S      Ryd( 2S)     0.00014       1.39467
   208    H   10  px     Ryd( 2p)     0.00009       2.83270
   209    H   10  py     Ryd( 2p)     0.00022       2.55359
   210    H   10  pz     Ryd( 2p)     0.00028       2.71171
 
   211    C   11  S      Cor( 1S)     1.99902     -10.36673
   212    C   11  S      Val( 2S)     0.96195      -0.20940
   213    C   11  S      Ryd( 4S)     0.00062       1.64540
   214    C   11  S      Ryd( 3S)     0.00013       1.50801
   215    C   11  S      Ryd( 5S)     0.00000      21.44850
   216    C   11  px     Val( 2p)     1.11932      -0.06922
   217    C   11  px     Ryd( 3p)     0.00328       1.19295
   218    C   11  px     Ryd( 4p)     0.00032       1.96881
   219    C   11  py     Val( 2p)     1.06616      -0.06100
[...]
 7,0.00000139,-0.00000200,-0.00000004,-0.00000262,0.00000081,-0.0000018
 4,0.00000207,-0.00000130,0.00000118,-0.00000117,0.00000184,0.00000376,
 0.00000228,0.00000022,0.00000333,0.00000013,-0.00000147,-0.00000033,-0
 .00000006,-0.00000061,0.00000093,0.00000253,-0.00000058,-0.00000782,0.
 00000669,-0.00000082,0.00000180,-0.00000230,-0.00000512,-0.00000223,-0
 .00000155,0.00000508,-0.00000849,0.00000052,0.00000243,-0.00000365,-0.
 00000153,-0.00000568,0.00000454,-0.00000401,-0.00001631,0.00005673,0.0
 0002022,-0.00000606,0.00000669,0.00000101,0.00001971,-0.00000426,-0.00
 000514,-0.00000093,0.00000267,0.00000093,-0.00000015,-0.00000041,0.000
 00030,0.00000036,0.00000306,0.00000183,-0.00005928,-0.00008471,0.00010
 590,-0.00004111,-0.00002150,-0.00002669,-0.00003932,0.00001732,0.00001
 338,0.00000389,-0.00000650,-0.00000060,0.00000167,-0.00000295,-0.00000
 077,-0.00000544,0.00000404,-0.00000130,-0.00003640,0.00044716,0.000387
 70,0.00024193,0.00018011,0.00013310,-0.00003339,0.00013737,-0.00004813
 ,-0.00000152,0.00000128,0.00000128,0.00000044,-0.00000031,0.00000029,0
 .00000037,0.00000259,0.00000087,0.00078963,-0.01165547,0.00005043,0.00
 022111,-0.00026043,0.00069751,0.00020163,-0.00101192,-0.00222912,0.000
 00128,-0.00000223,-0.00000007,-0.00000272,0.00000165,-0.00000040,0.000
 00072,-0.00000165,-0.00000021,0.00000026,0.00000114,0.00000074,-0.0513
 1796,0.03121545,-0.00001581,0.05086094,-0.00000407,0.00000413,-0.00000
 760,0.00000389,0.00000323,0.00000561,-0.00000029,0.00000924,0.00000091
 ,-0.00000224,-0.00000096,-0.00000489,0.00000574,0.00001056,0.00000595,
 0.00000321,-0.00001717,0.00000540,-0.00000163,-0.00000027,-0.00000250,
 -0.00000140,-0.00000569,-0.00000465,-0.00000152,-0.00000063,-0.0000027
 6,-0.00000121,-0.00000108,0.00000319,-0.00000355,-0.00000792,-0.000011
 87,0.00000588,-0.00000402,0.00000148,-0.00000631,0.00001153,-0.0000009
 4,0.00000080,-0.00000647,0.00000426,-0.00000950,0.00000372,-0.00000032
 ,0.00001767,-0.00000636,0.00000431,-0.00000290,-0.00000131,-0.00000171
 ,0.00000413,-0.00000183,-0.00000140,-0.00000267,0.00000217,-0.00000030
 ,-0.00000066,0.00001214,0.00000831,-0.00000613,0.00000115,-0.00000192,
 -0.00000211,0.00000105,-0.00000490,0.00000123,0.00000226,0.00000329,0.
 00001803,0.00001023,-0.00001470,-0.00000262,-0.00000452,-0.00001877,-0
 .00000199,0.00000298,0.00000668,0.00002467,-0.00001072,0.00001516,-0.0
 0000665,0.00000177,-0.00000235,-0.00000561,0.00000427,-0.00000288,-0.0
 0003977,-0.00000507,-0.00004465,0.00000404,-0.00000575,-0.00000311,0.0
 0000588,0.00001767,-0.00003349,-0.00000328,0.00000227,-0.00000468,-0.0
 0000590,-0.00000090,-0.00000397,0.00000221,0.00000347,0.00000390,-0.00
 003575,0.00048150,-0.00010898,-0.00000769,-0.00003462,0.00000755,0.000
 01387,0.00009781,0.00026298,0.00001731,-0.00000975,0.00001101,-0.00000
 396,0.00000186,-0.00000715,-0.00000492,0.00000384,-0.00000151,0.000027
 00,0.00060405,0.00095540,0.00038098,0.00046626,-0.00074138,-0.00002496
 ,-0.00005793,-0.00008543,-0.00000056,0.00000386,-0.00000316,-0.0000045
 5,-0.00000105,-0.00000202,0.00000143,0.00000257,0.00000264,0.00117211,
 -0.01371346,-0.00015909,-0.00039731,0.00050542,0.00000024,-0.00132061,
 0.00062348,-0.00250895,0.00000552,-0.00000454,0.00000243,-0.00000215,0
 .00000370,-0.00000062,-0.00000046,0.00000049,-0.00000319,-0.00000257,-
 0.00000147,0.00000085,0.03087198,-0.30991526,0.00532589,-0.03281001,0.
 33739518,0.00000098,-0.00000011,-0.00000024,0.00000240,0.00000117,0.00
 000047,0.00000022,0.00000140,0.00000063,-0.00000194,0.00000155,-0.0000
 0012,0.00000257,-0.00000002,0.00000314,0.00000060,0.00000070,-0.000000
 56,-0.00000035,-0.00000111,-0.00000020,-0.00000242,-0.00000096,-0.0000
 0161,-0.00000104,-0.00000066,-0.00000042,-0.00000038,-0.00000017,-0.00
 000107,0.00000898,-0.00001011,0.00000156,-0.00000456,-0.00000370,0.000
 00244,0.00000238,0.00000301,0.00000012,-0.00000485,0.00000343,-0.00000
 097,0.00000446,0.00000239,0.00000715,-0.00001466,0.00000287,0.00000035
 ,0.00000091,-0.00000027,-0.00000005,0.00000143,0.00000162,-0.00000539,
 0.00000009,-0.00000022,-0.00000032,-0.00000250,0.00000388,0.00000348,-
 0.00000390,-0.00000245,-0.00000359,0.00000110,0.00000083,-0.00000217,0
 .00000080,0.00000179,0.00000099,-0.00001448,-0.00000710,0.00002390,0.0
 0000322,-0.00000033,0.00000972,0.00000124,0.00000362,0.00000784,0.0000
 1351,-0.00000106,0.00000953,-0.00000222,-0.00000077,0.00000067,-0.0000
 0412,0.00000141,-0.00000116,0.00000615,0.00013362,0.00002015,0.0000029
 5,-0.00000411,-0.00000173,0.00002325,0.00003088,-0.00005487,-0.0000020
 0,-0.00000020,-0.00000359,-0.00000198,-0.00000030,-0.00000070,0.000001
 38,0.00000125,0.00000095,-0.00013393,-0.00000447,-0.00013542,-0.000004
 05,-0.00002573,0.00002057,0.00001569,0.00028266,0.00008939,0.00000496,
 -0.00000005,0.00000481,-0.00000006,0.00000120,-0.00000334,-0.00000109,
 -0.00000006,-0.00000019,-0.00008423,-0.00135305,0.00207735,0.00000589,
 0.00076037,-0.00034163,0.00008254,0.00009211,-0.00005669,-0.00000001,0
 .00000068,-0.00000220,-0.00000128,-0.00000045,0.00000036,0.00000045,-0
 .00000002,0.,0.00411153,-0.03062416,-0.00047397,0.00015790,0.00075735,
 0.00126923,-0.00180928,-0.00238145,-0.00516857,-0.00000063,0.00000077,
 -0.00000058,0.00000025,-0.00000028,0.00000031,0.00000051,0.00000022,-0
 .00000052,-0.00000045,-0.00000025,0.00000012,-0.00013575,0.00632280,-0
 .04653012,0.00221239,-0.00326829,0.05081648,-0.00000351,0.00000484,-0.
 00000318,-0.00000031,0.00000003,0.00000186,-0.00000027,0.00000319,-0.0
 0000125,0.00000158,-0.00000231,-0.00000378,-0.00000446,0.00000207,0.00
 000072,0.00000271,-0.00001053,0.00000343,-0.00000043,0.00000190,-0.000
 00072,0.00000473,0.00000014,0.00000091,0.00000103,0.00000150,-0.000001
 96,0.00000002,-0.00000156,0.00000238,-0.00000059,0.00000225,-0.0000146
 7,0.00000223,-0.00000393,-0.00000182,0.00000384,0.00000243,-0.00000425
 ,0.00000326,-0.00000922,0.00000314,-0.00000513,-0.00000043,-0.00000688
 ,0.00000210,-0.00000643,0.00000057,-0.00000154,0.,0.00000328,0.0000006
 8,0.00000062,0.00000410,-0.00000022,0.00000031,0.00000169,-0.00000232,
 0.00000781,0.00000855,-0.00000999,0.00000056,0.00000395,-0.00000196,0.
 00000114,-0.00000707,0.00000308,-0.00000292,-0.00000191,0.00002151,0.0
 0002165,-0.00001387,-0.00000263,-0.00000091,-0.00002194,-0.00000504,-0
 .00000464,0.00000194,0.00002111,0.00000002,0.00001510,-0.00001320,0.00
 001495,0.00000033,0.00000725,-0.00000682,0.00000412,-0.00002015,-0.000
 04548,-0.00004961,0.00001664,-0.00000036,-0.00002203,-0.00000172,0.000
 00574,-0.00000132,-0.00000371,0.00000426,-0.00000578,-0.00000745,-0.00
 000185,-0.00000498,0.00000180,-0.00000592,-0.00000074,0.00047324,-0.00
 007659,0.00000303,0.00001688,0.00004272,0.00025544,-0.00003451,-0.0000
 1534,-0.00000811,0.00001107,-0.00000222,0.00001229,-0.00000770,0.00001
 276,-0.00000619,0.00000737,-0.00000516,0.00000134,0.00071840,0.0000731
 2,0.00080179,-0.00004645,-0.00004898,-0.00008145,0.00051260,0.00024979
 ,-0.00065680,0.00000201,0.00000646,-0.00000647,-0.00000585,-0.00000195
 ,-0.00000189,0.00000053,-0.00000496,-0.00000036,-0.01006430,0.00160567
 ,-0.00181843,0.00099939,-0.00140313,-0.00164749,0.00032033,-0.00043968
 ,0.00001183,0.00000016,-0.00000258,0.00000242,0.00000500,-0.00000071,0
 .00000063,-0.00000032,0.00000665,-0.00000227,-0.00000577,-0.00000442,-
 0.00000010,-0.29542638,0.05336716,-0.04072582,-0.00260376,0.00052224,-
 0.00002427,0.32089172,0.00000013,0.00000135,-0.00000033,-0.00000123,-0
 .00000074,-0.00000054,-0.00000069,0.00000107,-0.00000090,0.00000126,0.
 00000074,0.00000172,-0.00000005,0.00000282,-0.00000158,0.00000110,-0.0
 0000376,0.00000177,0.00000017,0.00000029,0.,-0.00000042,-0.00000171,-0
 .00000035,0.00000038,0.00000035,0.00000064,-0.00000046,0.00000002,0.00
 000071,-0.00000484,0.00000397,-0.00000651,0.00000511,-0.00000197,0.000
 00006,-0.00000224,0.00000105,0.00000110,0.00000059,-0.00000273,0.00000
 134,-0.00000085,0.00000120,-0.00000131,0.00000356,-0.00000825,-0.00000
 105,-0.00000107,-0.00000020,-0.00000082,0.00000114,-0.00000079,0.00000
 097,-0.00000118,0.00000043,-0.00000107,-0.00000039,0.00000280,0.000002
 08,-0.00000402,0.00000210,0.00000141,-0.00000064,-0.00000035,-0.000002
 20,0.00000040,-0.00000063,-0.00000027,-0.00001205,0.00000177,0.0000124
 4,0.00000017,0.00000189,0.00000165,-0.00000316,-0.00000345,-0.00000299
 ,0.00000917,-0.00000542,0.00000437,-0.00000270,0.00000664,0.00000071,0
 .00000091,-0.00000047,0.00000014,0.00007257,-0.00001136,0.00004182,0.0
 0000137,0.00002021,-0.00001503,0.00000523,-0.00000466,0.00000413,-0.00
 000152,0.00000411,-0.00000230,-0.00000183,-0.00000164,-0.00000033,-0.0
 0000009,-0.00000099,0.00000003,-0.00015077,-0.00005129,0.00007731,0.00
 005142,-0.00004086,0.00001889,-0.00002197,-0.00004423,-0.00002191,0.00
 000235,-0.00000434,0.00000121,0.00000007,0.00000319,-0.00000118,0.0000
 0016,0.00000036,-0.00000014,0.00006356,0.00004723,0.00065403,0.0001573
 8,-0.00004070,-0.00002371,0.00025706,0.00019686,0.00015385,-0.00000027
 ,0.00000267,-0.00000097,-0.00000048,-0.00000104,0.00000046,-0.00000034
 ,-0.00000039,-0.00000010,-0.01472883,0.00270479,-0.00265791,-0.0009849
 4,-0.00030595,-0.00296702,-0.00027154,0.00043588,0.00081168,-0.0000009
 6,-0.00000183,-0.00000055,-0.00000016,0.00000029,-0.00000002,0.0000008
 9,0.00000047,0.00000018,-0.00000084,0.00000004,0.00000063,0.05383998,-
 0.05893930,0.00956283,0.03193872,-0.00563352,0.00479417,-0.05775162,0.
 05970040,-0.00000135,0.00000102,0.00000025,0.00000047,0.00000129,0.000
 00073,0.00000062,0.00000076,0.,0.00000093,-0.00000125,-0.00000120,-0.0
 0000177,0.00000024,0.00000211,0.00000277,-0.00000153,0.00000003,-0.000
 00016,0.00000026,-0.00000051,0.00000110,-0.00000044,0.00000002,-0.0000
 0010,0.00000033,-0.00000103,0.00000017,-0.00000061,-0.00000059,0.00001
 087,-0.00000323,-0.00000521,-0.00000402,-0.00000495,0.00000059,0.00000
 976,-0.00000029,-0.00000155,-0.00000175,-0.00000242,0.00000066,0.00000
 680,-0.00000115,0.00000026,-0.00002973,0.00000541,0.00000378,0.0000006
 6,-0.00000045,0.00000175,-0.00000011,0.00000308,-0.00000166,-0.0000001
 1,-0.00000008,0.00000021,-0.00000512,0.00000354,0.00000469,-0.00000952
 ,-0.00000265,-0.00000044,0.00000116,0.00000079,-0.00000576,0.00000166,
 -0.00000033,-0.00000127,-0.00000300,-0.00000866,0.00002352,0.00000121,
 0.00000212,0.00000588,-0.00000114,-0.00000080,-0.00000126,0.00002207,-
 0.00000157,0.00001688,-0.00000966,0.00001325,0.00000216,0.00000424,-0.
 00000300,0.00000229,0.00012036,-0.00000745,0.00003075,0.00004689,0.000
 01035,-0.00005164,-0.00000450,0.00000264,-0.00000319,-0.00000149,0.000
 00322,-0.00000945,-0.00000541,-0.00000239,-0.00000149,0.00000020,-0.00
 000211,0.00000121,0.00009736,-0.00017069,-0.00012723,0.00026512,0.0000
 1958,0.00016135,-0.00003166,0.00001014,0.00002137,0.00000655,-0.000003
 59,0.00000776,-0.00000083,0.00000587,-0.00000539,0.00000167,-0.0000000
 3,-0.00000087,-0.00157990,0.00041983,0.00191068,0.00008372,0.00006363,
 -0.00006175,0.00085210,-0.00011817,-0.00034117,0.00000118,0.00000319,-
 0.00000475,-0.00000264,-0.00000149,0.00000046,-0.00000041,-0.00000073,
 0.00000094,-0.02930115,0.00672111,-0.00596997,-0.00150518,-0.00264074,
 -0.00506214,0.00068398,0.00015801,0.00123552,-0.00000085,-0.00000177,-
 0.00000073,-0.00000045,0.00000135,-0.00000052,0.00000126,-0.00000032,-
 0.00000082,-0.00000130,-0.00000078,0.00000135,-0.03986500,0.00929632,-
 0.05331877,-0.00069333,0.00032723,-0.00134620,0.04693611,-0.00760086,0
 .05833420,0.00000169,-0.00000123,0.00000090,0.00000297,0.00000013,-0.0
 0000058,-0.00000025,0.00000090,0.00000100,-0.00000169,0.00000202,0.000
 00113,0.00000352,-0.00000281,0.00000133,-0.00000197,0.00000382,-0.0000
 0045,-0.00000019,-0.00000175,-0.00000004,-0.00000187,-0.00000007,-0.00
 000127,-0.00000149,-0.00000114,0.00000030,-0.00000068,0.00000031,-0.00
 000136,0.00000308,-0.00000242,0.00000809,-0.00000504,0.00000156,0.0000
 0142,-0.00000114,-0.00000124,0.00000143,0.00000026,0.00000459,-0.00000
 136,-0.00000053,0.00000231,0.00000393,0.00000394,0.00000350,0.00000421
 ,0.00000139,-0.00000028,-0.00000098,-0.00000068,-0.00000038,-0.0000030
 1,0.00000024,-0.00000049,-0.00000094,0.00000013,-0.00000348,-0.0000035
 3,0.00000369,-0.00000081,-0.00000285,0.00000127,-0.00000024,0.00000273
 ,-0.00000124,0.00000146,0.00000086,0.00003055,0.00002386,-0.00004905,-
 0.00000374,-0.00000669,-0.00001686,0.00000216,0.00000218,0.00000285,-0
 .00000738,0.00000006,-0.00000448,0.00000504,-0.00000624,0.00000010,-0.
 00000327,0.00000315,-0.00000191,-0.00008399,-0.00009846,-0.00016433,0.
 00000117,-0.00001396,0.00000393,-0.00000724,0.00000459,0.00000404,0.00
 000184,-0.00000194,0.00000143,0.00000274,0.00000099,0.00000202,-0.0000
 0064,0.00000258,0.00000085,0.00065836,-0.00001510,-0.00048215,0.000014
 67,0.00006217,0.00010470,-0.00000044,0.00000157,-0.00000051,-0.0000038
 4,0.00000141,-0.00000434,0.00000300,-0.00000676,0.00000191,-0.00000394
 ,0.00000231,-0.00000121,-0.00049205,-0.00088155,-0.00144445,-0.0001562
 8,-0.00011127,0.00003886,0.00047305,-0.00008663,-0.00028301,-0.0000014
 1,-0.00000318,0.00000329,0.00000221,0.00000135,0.00000017,0.00000026,0
 .00000234,0.00000054,0.00595560,0.00531689,-0.00953934,0.00051246,0.00
 053381,0.00046932,0.00017101,0.00023475,0.00068136,0.00000166,0.000001
 65,-0.00000073,-0.00000275,0.00000031,-0.00000055,-0.00000086,-0.00000
 366,0.00000073,0.00000313,0.00000228,0.00000017,-0.12486803,-0.0534328
 0,0.11059263,0.00182189,0.00161769,-0.00441428,-0.01577263,-0.01246272
 ,0.02390066,0.13174225,0.00000239,0.00000092,0.00000055,0.00000169,-0.
 00000028,-0.00000079,-0.00000045,0.00000135,-0.00000007,-0.00000062,0.
 00000239,0.00000137,0.00000003,-0.00000226,0.00000056,-0.00000142,0.00
 000001,0.00000107,-0.00000027,-0.00000066,-0.00000002,-0.00000030,0.00
 000052,-0.00000015,-0.00000055,-0.00000024,-0.00000027,-0.00000068,-0.
 00000067,-0.00000086,-0.00000339,0.00000650,-0.00000108,0.00000018,-0.
 00000087,-0.00000017,-0.00000256,-0.00000009,-0.00000060,0.00000013,0.
 00000083,0.00000020,-0.00000405,-0.00000126,0.00000180,0.00001953,-0.0
 0000423,0.00000517,0.00000070,0.00000003,0.00000045,0.00000079,-0.0000
 0111,-0.00000172,0.00000014,-0.00000086,-0.00000048,0.00000084,-0.0000
 0120,-0.00000170,0.00000090,0.00000045,0.00000060,0.00000015,-0.000000
 38,0.00000125,0.00000019,-0.00000086,-0.00000159,0.00005109,0.00004420
 ,-0.00006530,-0.00000606,-0.00001293,-0.00003139,0.00000089,-0.0000032
 0,0.00000268,-0.00000699,0.00000320,-0.00000471,0.00000186,0.00000164,
 0.00000080,0.00000220,-0.00000261,0.00000209,-0.00013809,-0.00015698,-
 0.00020691,0.00000617,-0.00000768,0.00000896,-0.00001508,0.00000553,0.
 00000186,0.00000080,-0.00000019,0.00000206,0.00000137,0.00000014,0.000
 00101,-0.00000028,-0.00000256,-0.00000263,0.00027602,0.00075884,-0.000
 63849,-0.00001234,0.00000093,-0.00001086,0.00005282,0.00000942,0.00011
 050,-0.00000807,0.00000575,-0.00000443,0.00000017,0.00000194,0.0000026
 4,0.00000456,-0.00000431,0.00000196,-0.00122560,-0.00113856,-0.0019375
 5,-0.00000087,0.00044044,-0.00032789,-0.00018699,-0.00014781,0.0001158
 5,0.00000060,-0.00000108,0.00000172,0.00000117,0.00000047,0.00000023,-
 0.00000036,-0.00000287,-0.00000220,0.00912621,0.00499738,-0.01140164,0
 .00003897,0.00029023,0.00078045,0.00055733,0.00046165,0.00054292,-0.00
 000312,0.00000305,-0.00000154,0.00000332,-0.00000324,0.00000121,-0.000
 00087,0.00000195,0.00000163,0.00000045,-0.00000029,-0.00000062,-0.0536
 0144,-0.08416384,0.07661846,-0.01814259,-0.01084155,0.02448417,0.00389
 866,0.00196758,-0.00649003,0.05931073,0.08749731,-0.00000575,0.0000089
 5,-0.00000987,-0.00000381,-0.00000178,0.00000507,-0.00000302,0.0000094
 5,-0.00000322,0.00000153,-0.00000281,-0.00000321,0.00000075,0.00001750
 ,-0.00000736,0.00000007,-0.00003156,0.00001215,-0.00000072,0.00000322,
 -0.00000116,0.00000460,-0.00000472,-0.00000085,0.00000176,0.00000221,-
 0.00000141,-0.00000165,-0.00000204,0.00000847,-0.00005212,0.00000949,-
 0.00003030,0.00004943,0.00001906,-0.00000667,-0.00003614,0.00000657,0.
 00000125,0.00001871,-0.00001671,0.00000790,-0.00004708,-0.00000097,-0.
 00001915,0.00012774,-0.00003561,0.00002014,-0.00000942,0.00000221,-0.0
 0000518,0.00000427,-0.00001124,0.00001375,-0.00000346,0.00000426,0.000
 00014,0.00001428,0.00001744,0.00000963,0.00000119,0.00001308,0.0000131
 1,-0.00001053,-0.00000144,0.00000033,0.00000035,-0.00000371,0.00000302
 ,0.00016867,0.00014293,-0.00016437,-0.00003210,-0.00002608,-0.00011941
 ,-0.00001291,-0.00000657,0.00001401,-0.00000394,-0.00001496,-0.0000058
 2,0.00000856,0.00000490,-0.00001081,0.00000021,0.00000264,-0.00000485,
 -0.00043563,-0.00043711,-0.00040825,0.00001227,-0.00001351,0.00001064,
 -0.00000728,0.00002760,0.00001262,0.00001001,0.00001077,0.00000211,-0.
 00000233,-0.00000267,0.00000639,-0.00000228,0.00000005,0.00000172,0.00
 145367,0.00111908,-0.00080471,-0.00007283,0.00005218,0.00001851,0.0000
 3508,-0.00010874,-0.00001314,-0.00002235,-0.00000783,-0.00002046,0.000
 01232,-0.00000871,0.00000204,-0.00000417,0.00000532,-0.00000178,-0.003
 73508,-0.00397653,-0.00400923,-0.00019514,-0.00001616,0.00026561,0.000
 03105,-0.00014085,0.00023238,0.00000530,0.00000274,0.00001012,0.000005
 16,0.00000024,0.00000472,-0.00000211,0.00000259,-0.00000053,0.01615379
 ,0.01174798,-0.02039193,-0.00038654,0.00059311,0.00087616,0.00035059,-
 0.00034957,0.00102092,-0.00001159,-0.00000232,-0.00000907,-0.00000429,
 0.00000287,-0.00000048,0.00000605,-0.00000732,0.00000459,0.00000096,0.
 00000127,0.00000654,0.10958180,0.07570127,-0.20242706,-0.00060909,0.00
 009944,-0.00023355,-0.00293351,-0.00284040,0.00455514,-0.11941332,-0.0
 8155852,0.22157470\\0.00000123,0.00000336,-0.00000206,0.00000060,-0.00
 000168,0.00000064,-0.00000167,0.00000458,-0.00000144,0.00000002,-0.000
 00107,0.00000114,-0.00000268,0.00000291,0.00000067,0.00000280,-0.00000
 780,0.00000264,0.00000016,-0.00000109,0.00000089,-0.00000022,-0.000000
 23,-0.00000007,0.00000096,0.00000012,0.00000061,0.00000044,0.00000058,
 0.00000061,-0.00000949,0.00000081,-0.00000034,0.00000455,-0.00001115,0
 .00000429,0.00000351,0.00000946,-0.00000354,-0.00000957,0.00000502,-0.
 00000195,0.00000368,-0.00000395,0.00000213,0.00000540,0.00000468,-0.00
 000089,-0.00000046,-0.00000113,0.00000006,0.00000032,0.00000118,-0.000
 00010,-0.00000105,-0.00000089,0.00000053,0.00000188,-0.00000042,-0.000
 00057,-0.00000123,0.00000142,0.00000332,0.00000063,-0.00000040,-0.0000
 0120,0.00000057,-0.00000041,-0.00000075,0.00000438,0.00000231,0.000005
 04,-0.00000039,0.00000020,0.00000110,0.00000012,0.00000008,-0.00000053
 ,0.00000229,-0.00000008,-0.00000696,0.00000068,0.00000070,0.00000184,-
 0.00000005,0.00000027,0.00000179,-0.00000261,-0.00000168,-0.00000675,0
 .00000018,0.00000134,0.00000143,0.00000066,0.00000199,0.00000210,-0.00
 000072,-0.00000098,0.00000095,0.00000015,-0.00000132,-0.00000176,0.000
 00022,-0.00000094,-0.00000141,-0.00000030,0.00000144,0.00000299,-0.000
 00060,-0.00000063,0.00000015,-0.00000079,-0.00000060,0.00000007,-0.000
 00046,-0.00000131,-0.00000123,0.00000073,0.00000017,-0.00000003,0.0000
 0051,0.00000018,0.,-0.00000181,-0.00000140,0.00000019,0.00000058,0.000
 00162,0.00000064,0.00000108,0.00000169,0.00000081,-0.00000051,-0.00000
 086,-0.00000114,0.00000037,-0.00000148,-0.00000143,0.00000027,-0.00000
 124,-0.00000169,0.00000050,0.00000084,0.00000124,-0.00000133,-0.000000
 95,-0.00000006,-0.00000132,-0.00000047,-0.00000008,-0.00000035,-0.0000
 0187,0.00000026,0.00000014,-0.00000055,-0.00000089,0.00000002,-0.00000
 097,-0.00000090,0.00000082,-0.00000025,-0.00000176,-0.00000167,-0.0000
 0079,0.00000119,-0.00000051,0.00000062,0.00000055,-0.00000039,0.000000
 69,0.00000062,-0.00000026,0.00000031,-0.00000095\\\@
 The archive entry for this job was punched.


 REPARTEE - WHAT YOU THINK OF AFTER YOU BECOME A DEPARTEE.
 Job cpu time:       6 days  6 hours  1 minutes  6.3 seconds.
 Elapsed time:       0 days  4 hours 44 minutes 28.2 seconds.
 File lengths (MBytes):  RWF=   3397 Int=      0 D2E=      0 Chk=     73 Scr=      1
 Normal termination of Gaussian 16 at Thu Nov  9 14:10:51 2023.
