 Entering Gaussian System, Link 0=g16
 Input=ph_345me_1_1_m062x.com
 Output=ph_345me_1_1_m062x.log
 Initial command:
 /arc/software/Gaussian/g16.c01/l1.exe "/tmp/slurm/41168/Gau-211969.inp" -scrdir="/tmp/slurm/41168/"
 Entering Link 1 = /arc/software/Gaussian/g16.c01/l1.exe PID=    211987.
  
 Copyright (c) 1988-2019, Gaussian, Inc.  All Rights Reserved.
  
 This is part of the Gaussian(R) 16 program.  It is based on
 the Gaussian(R) 09 system (copyright 2009, Gaussian, Inc.),
 the Gaussian(R) 03 system (copyright 2003, Gaussian, Inc.),
 the Gaussian(R) 98 system (copyright 1998, Gaussian, Inc.),
 the Gaussian(R) 94 system (copyright 1995, Gaussian, Inc.),
 the Gaussian 92(TM) system (copyright 1992, Gaussian, Inc.),
 the Gaussian 90(TM) system (copyright 1990, Gaussian, Inc.),
 the Gaussian 88(TM) system (copyright 1988, Gaussian, Inc.),
 the Gaussian 86(TM) system (copyright 1986, Carnegie Mellon
 University), and the Gaussian 82(TM) system (copyright 1983,
 Carnegie Mellon University). Gaussian is a federally registered
 trademark of Gaussian, Inc.
  
 This software contains proprietary and confidential information,
 including trade secrets, belonging to Gaussian, Inc.
  
 This software is provided under written license and may be
 used, copied, transmitted, or stored only in accord with that
 written license.
  
 The following legend is applicable only to US Government
 contracts under FAR:
  
                    RESTRICTED RIGHTS LEGEND
  
 Use, reproduction and disclosure by the US Government is
 subject to restrictions as set forth in subparagraphs (a)
 and (c) of the Commercial Computer Software - Restricted
 Rights clause in FAR 52.227-19.
  
 Gaussian, Inc.
 340 Quinnipiac St., Bldg. 40, Wallingford CT 06492
  
  
 ---------------------------------------------------------------
 Warning -- This program may not be used in any manner that
 competes with the business of Gaussian, Inc. or will provide
 assistance to any competitor of Gaussian, Inc.  The licensee
 of this program is prohibited from giving any competitor of
 Gaussian, Inc. access to this program.  By using this program,
 the user acknowledges that Gaussian, Inc. is engaged in the
 business of creating and licensing software in the field of
 computational chemistry and represents and warrants to the
 licensee that it is not a competitor of Gaussian, Inc. and that
 it will not use this program in any manner prohibited above.
 ---------------------------------------------------------------
  

 Cite this work as:
 Gaussian 16, Revision C.01,
 M. J. Frisch, G. W. Trucks, H. B. Schlegel, G. E. Scuseria, 
 M. A. Robb, J. R. Cheeseman, G. Scalmani, V. Barone, 
 G. A. Petersson, H. Nakatsuji, X. Li, M. Caricato, A. V. Marenich, 
 J. Bloino, B. G. Janesko, R. Gomperts, B. Mennucci, H. P. Hratchian, 
 J. V. Ortiz, A. F. Izmaylov, J. L. Sonnenberg, D. Williams-Young, 
 F. Ding, F. Lipparini, F. Egidi, J. Goings, B. Peng, A. Petrone, 
 T. Henderson, D. Ranasinghe, V. G. Zakrzewski, J. Gao, N. Rega, 
 G. Zheng, W. Liang, M. Hada, M. Ehara, K. Toyota, R. Fukuda, 
 J. Hasegawa, M. Ishida, T. Nakajima, Y. Honda, O. Kitao, H. Nakai, 
 T. Vreven, K. Throssell, J. A. Montgomery, Jr., J. E. Peralta, 
 F. Ogliaro, M. J. Bearpark, J. J. Heyd, E. N. Brothers, K. N. Kudin, 
 V. N. Staroverov, T. A. Keith, R. Kobayashi, J. Normand, 
 K. Raghavachari, A. P. Rendell, J. C. Burant, S. S. Iyengar, 
 J. Tomasi, M. Cossi, J. M. Millam, M. Klene, C. Adamo, R. Cammi, 
 J. W. Ochterski, R. L. Martin, K. Morokuma, O. Farkas, 
 J. B. Foresman, and D. J. Fox, Gaussian, Inc., Wallingford CT, 2019.
 
 ******************************************
 Gaussian 16:  ES64L-G16RevC.01  3-Jul-2019
                 8-Nov-2023 
 ******************************************
 %nprocshared=32
 Will use up to   32 processors via shared memory.
 %mem=8000MB
 %chk=ph_345me_1_1_m062x.chk
 -----------------------------------------
 # opt freq=noraman m062x def2tzvp pop=nbo
 -----------------------------------------
 1/18=20,19=15,26=3,38=1/1,3;
 2/9=110,12=2,17=6,18=5,40=1/2;
 3/5=44,7=101,11=2,25=1,30=1,71=1,74=-55/1,2,3;
 4//1;
 5/5=2,38=5/2;
 6/7=2,8=2,9=2,10=2,28=1,40=1/1,7;
 7//1,2,3,16;
 1/18=20,19=15,26=3/3(2);
 2/9=110/2;
 99//99;
 2/9=110/2;
 3/5=44,7=101,11=2,25=1,30=1,71=1,74=-55/1,2,3;
 4/5=5,16=3,69=1/1;
 5/5=2,38=5/2;
 7//1,2,3,16;
 1/18=20,19=15,26=3/3(-5);
 2/9=110/2;
 6/7=2,8=2,9=2,10=2,19=2,28=1,40=1/1,7;
 99/9=1/99;
 ------------
 Structure697
 ------------
 Symbolic Z-matrix:
 Charge =  0 Multiplicity = 1
 C                    -5.2464   -0.233     0.8892 
 C                    -4.8298    0.8869    1.6049 
 C                    -3.9693    0.7313    2.688 
 C                    -3.5243   -0.5344    3.0595 
 C                    -3.9452   -1.6511    2.3413 
 C                    -4.8107   -1.5159    1.2474 
 H                    -3.6444    1.5989    3.2442 
 H                    -3.5832   -2.627     2.6295 
 H                    -5.1758    1.8706    1.3221 
 H                    -5.9248   -0.1026    0.059 
 C                    -6.1128   -4.9855   -0.9787 
 C                    -5.9747   -5.0474    0.4203 
 C                    -5.5514   -3.9188    1.127 
 C                    -5.2597   -2.7145    0.4787 
 C                    -5.3976   -2.6679   -0.9121 
 C                    -5.8171   -3.7816   -1.6445 
 H                    -5.4607   -3.9726    2.2016 
 H                    -5.1585   -1.753    -1.4334 
 H                    -2.8535   -0.6505    3.8984 
 C                    -5.9144   -3.6567   -3.1592 
 H                    -5.4372   -2.7489   -3.5299 
 H                    -5.4132   -4.4965   -3.641 
 H                    -6.9576   -3.6597   -3.4755 
 C                    -6.2553   -6.3257    1.1992 
 H                    -5.8908   -6.2721    2.2256 
 H                    -7.3253   -6.5333    1.2173 
 H                    -5.7551   -7.1728    0.7292 
 C                    -6.5972   -6.2051   -1.7634 
 H                    -7.1655   -5.9192   -2.6475 
 H                    -5.7512   -6.8185   -2.0732 
 H                    -7.2799   -6.8194   -1.1778 
 

 GradGradGradGradGradGradGradGradGradGradGradGradGradGradGradGradGradGrad
 Berny optimization.
 Initialization pass.
                           ----------------------------
                           !    Initial Parameters    !
                           ! (Angstroms and Degrees)  !
 --------------------------                            --------------------------
 ! Name  Definition              Value          Derivative Info.                !
 --------------------------------------------------------------------------------
 ! R1    R(1,2)                  1.3928         estimate D2E/DX2                !
 ! R2    R(1,6)                  1.4014         estimate D2E/DX2                !
 ! R3    R(1,10)                 1.08           estimate D2E/DX2                !
 ! R4    R(2,3)                  1.392          estimate D2E/DX2                !
 ! R5    R(2,9)                  1.0804         estimate D2E/DX2                !
 ! R6    R(3,4)                  1.3921         estimate D2E/DX2                !
 ! R7    R(3,7)                  1.0806         estimate D2E/DX2                !
 ! R8    R(4,5)                  1.3928         estimate D2E/DX2                !
 ! R9    R(4,19)                 1.0804         estimate D2E/DX2                !
 ! R10   R(5,6)                  1.4014         estimate D2E/DX2                !
 ! R11   R(5,8)                  1.08           estimate D2E/DX2                !
 ! R12   R(6,14)                 1.493          estimate D2E/DX2                !
 ! R13   R(11,12)                1.4072         estimate D2E/DX2                !
 ! R14   R(11,16)                1.4072         estimate D2E/DX2                !
 ! R15   R(11,28)                1.529          estimate D2E/DX2                !
 ! R16   R(12,13)                1.3973         estimate D2E/DX2                !
 ! R17   R(12,24)                1.523          estimate D2E/DX2                !
 ! R18   R(13,14)                1.3985         estimate D2E/DX2                !
 ! R19   R(13,17)                1.0798         estimate D2E/DX2                !
 ! R20   R(14,15)                1.3984         estimate D2E/DX2                !
 ! R21   R(15,16)                1.3974         estimate D2E/DX2                !
 ! R22   R(15,18)                1.0798         estimate D2E/DX2                !
 ! R23   R(16,20)                1.523          estimate D2E/DX2                !
 ! R24   R(20,21)                1.0905         estimate D2E/DX2                !
 ! R25   R(20,22)                1.0902         estimate D2E/DX2                !
 ! R26   R(20,23)                1.0901         estimate D2E/DX2                !
 ! R27   R(24,25)                1.0905         estimate D2E/DX2                !
 ! R28   R(24,26)                1.0901         estimate D2E/DX2                !
 ! R29   R(24,27)                1.0903         estimate D2E/DX2                !
 ! R30   R(28,29)                1.0892         estimate D2E/DX2                !
 ! R31   R(28,30)                1.0899         estimate D2E/DX2                !
 ! R32   R(28,31)                1.0892         estimate D2E/DX2                !
 ! A1    A(2,1,6)              120.7785         estimate D2E/DX2                !
 ! A2    A(2,1,10)             119.0639         estimate D2E/DX2                !
 ! A3    A(6,1,10)             120.1514         estimate D2E/DX2                !
 ! A4    A(1,2,3)              119.6583         estimate D2E/DX2                !
 ! A5    A(1,2,9)              120.1174         estimate D2E/DX2                !
 ! A6    A(3,2,9)              120.224          estimate D2E/DX2                !
 ! A7    A(2,3,4)              120.4546         estimate D2E/DX2                !
 ! A8    A(2,3,7)              119.7757         estimate D2E/DX2                !
 ! A9    A(4,3,7)              119.7698         estimate D2E/DX2                !
 ! A10   A(3,4,5)              119.6523         estimate D2E/DX2                !
 ! A11   A(3,4,19)             120.2243         estimate D2E/DX2                !
 ! A12   A(5,4,19)             120.1231         estimate D2E/DX2                !
 ! A13   A(4,5,6)              120.7818         estimate D2E/DX2                !
 ! A14   A(4,5,8)              119.0492         estimate D2E/DX2                !
 ! A15   A(6,5,8)              120.1627         estimate D2E/DX2                !
 ! A16   A(1,6,5)              118.6745         estimate D2E/DX2                !
 ! A17   A(1,6,14)             120.6512         estimate D2E/DX2                !
 ! A18   A(5,6,14)             120.6744         estimate D2E/DX2                !
 ! A19   A(12,11,16)           119.1711         estimate D2E/DX2                !
 ! A20   A(12,11,28)           120.4137         estimate D2E/DX2                !
 ! A21   A(16,11,28)           120.4095         estimate D2E/DX2                !
 ! A22   A(11,12,13)           119.8044         estimate D2E/DX2                !
 ! A23   A(11,12,24)           121.8235         estimate D2E/DX2                !
 ! A24   A(13,12,24)           118.3659         estimate D2E/DX2                !
 ! A25   A(12,13,14)           121.621          estimate D2E/DX2                !
 ! A26   A(12,13,17)           119.2459         estimate D2E/DX2                !
 ! A27   A(14,13,17)           119.1271         estimate D2E/DX2                !
 ! A28   A(6,14,13)            121.023          estimate D2E/DX2                !
 ! A29   A(6,14,15)            120.9951         estimate D2E/DX2                !
 ! A30   A(13,14,15)           117.9816         estimate D2E/DX2                !
 ! A31   A(14,15,16)           121.6222         estimate D2E/DX2                !
 ! A32   A(14,15,18)           119.1142         estimate D2E/DX2                !
 ! A33   A(16,15,18)           119.2562         estimate D2E/DX2                !
 ! A34   A(11,16,15)           119.7989         estimate D2E/DX2                !
 ! A35   A(11,16,20)           121.825          estimate D2E/DX2                !
 ! A36   A(15,16,20)           118.3655         estimate D2E/DX2                !
 ! A37   A(16,20,21)           112.2346         estimate D2E/DX2                !
 ! A38   A(16,20,22)           110.3031         estimate D2E/DX2                !
 ! A39   A(16,20,23)           110.4567         estimate D2E/DX2                !
 ! A40   A(21,20,22)           106.8483         estimate D2E/DX2                !
 ! A41   A(21,20,23)           108.8093         estimate D2E/DX2                !
 ! A42   A(22,20,23)           108.0347         estimate D2E/DX2                !
 ! A43   A(12,24,25)           112.2423         estimate D2E/DX2                !
 ! A44   A(12,24,26)           110.4373         estimate D2E/DX2                !
 ! A45   A(12,24,27)           110.3124         estimate D2E/DX2                !
 ! A46   A(25,24,26)           108.7726         estimate D2E/DX2                !
 ! A47   A(25,24,27)           106.8929         estimate D2E/DX2                !
 ! A48   A(26,24,27)           108.0302         estimate D2E/DX2                !
 ! A49   A(11,28,29)           111.8701         estimate D2E/DX2                !
 ! A50   A(11,28,30)           110.4185         estimate D2E/DX2                !
 ! A51   A(11,28,31)           111.8707         estimate D2E/DX2                !
 ! A52   A(29,28,30)           108.7838         estimate D2E/DX2                !
 ! A53   A(29,28,31)           104.9164         estimate D2E/DX2                !
 ! A54   A(30,28,31)           108.7791         estimate D2E/DX2                !
 ! D1    D(6,1,2,3)              0.0739         estimate D2E/DX2                !
 ! D2    D(6,1,2,9)           -179.7296         estimate D2E/DX2                !
 ! D3    D(10,1,2,3)           179.168          estimate D2E/DX2                !
 ! D4    D(10,1,2,9)            -0.6355         estimate D2E/DX2                !
 ! D5    D(2,1,6,5)             -0.0413         estimate D2E/DX2                !
 ! D6    D(2,1,6,14)           179.9639         estimate D2E/DX2                !
 ! D7    D(10,1,6,5)          -179.1256         estimate D2E/DX2                !
 ! D8    D(10,1,6,14)            0.8796         estimate D2E/DX2                !
 ! D9    D(1,2,3,4)             -0.0325         estimate D2E/DX2                !
 ! D10   D(1,2,3,7)            179.9614         estimate D2E/DX2                !
 ! D11   D(9,2,3,4)            179.7708         estimate D2E/DX2                !
 ! D12   D(9,2,3,7)             -0.2354         estimate D2E/DX2                !
 ! D13   D(2,3,4,5)             -0.0405         estimate D2E/DX2                !
 ! D14   D(2,3,4,19)           179.7656         estimate D2E/DX2                !
 ! D15   D(7,3,4,5)            179.9656         estimate D2E/DX2                !
 ! D16   D(7,3,4,19)            -0.2282         estimate D2E/DX2                !
 ! D17   D(3,4,5,6)              0.0735         estimate D2E/DX2                !
 ! D18   D(3,4,5,8)            179.1647         estimate D2E/DX2                !
 ! D19   D(19,4,5,6)          -179.7329         estimate D2E/DX2                !
 ! D20   D(19,4,5,8)            -0.6417         estimate D2E/DX2                !
 ! D21   D(4,5,6,1)             -0.0327         estimate D2E/DX2                !
 ! D22   D(4,5,6,14)           179.962          estimate D2E/DX2                !
 ! D23   D(8,5,6,1)           -179.1138         estimate D2E/DX2                !
 ! D24   D(8,5,6,14)             0.8809         estimate D2E/DX2                !
 ! D25   D(1,6,14,13)         -141.7826         estimate D2E/DX2                !
 ! D26   D(1,6,14,15)           38.4031         estimate D2E/DX2                !
 ! D27   D(5,6,14,13)           38.2228         estimate D2E/DX2                !
 ! D28   D(5,6,14,15)         -141.5916         estimate D2E/DX2                !
 ! D29   D(16,11,12,13)          0.1527         estimate D2E/DX2                !
 ! D30   D(16,11,12,24)       -178.9358         estimate D2E/DX2                !
 ! D31   D(28,11,12,13)       -178.9829         estimate D2E/DX2                !
 ! D32   D(28,11,12,24)          1.9287         estimate D2E/DX2                !
 ! D33   D(12,11,16,15)         -0.247          estimate D2E/DX2                !
 ! D34   D(12,11,16,20)        178.552          estimate D2E/DX2                !
 ! D35   D(28,11,16,15)        178.8886         estimate D2E/DX2                !
 ! D36   D(28,11,16,20)         -2.3124         estimate D2E/DX2                !
 ! D37   D(12,11,28,29)        148.3335         estimate D2E/DX2                !
 ! D38   D(12,11,28,30)        -90.3574         estimate D2E/DX2                !
 ! D39   D(12,11,28,31)         30.9461         estimate D2E/DX2                !
 ! D40   D(16,11,28,29)        -30.7913         estimate D2E/DX2                !
 ! D41   D(16,11,28,30)         90.5178         estimate D2E/DX2                !
 ! D42   D(16,11,28,31)       -148.1786         estimate D2E/DX2                !
 ! D43   D(11,12,13,14)          0.121          estimate D2E/DX2                !
 ! D44   D(11,12,13,17)        179.2208         estimate D2E/DX2                !
 ! D45   D(24,12,13,14)        179.2407         estimate D2E/DX2                !
 ! D46   D(24,12,13,17)         -1.6594         estimate D2E/DX2                !
 ! D47   D(11,12,24,25)        167.1603         estimate D2E/DX2                !
 ! D48   D(11,12,24,26)        -71.2771         estimate D2E/DX2                !
 ! D49   D(11,12,24,27)         48.0732         estimate D2E/DX2                !
 ! D50   D(13,12,24,25)        -11.9408         estimate D2E/DX2                !
 ! D51   D(13,12,24,26)        109.6218         estimate D2E/DX2                !
 ! D52   D(13,12,24,27)       -131.0279         estimate D2E/DX2                !
 ! D53   D(12,13,14,6)         179.8881         estimate D2E/DX2                !
 ! D54   D(12,13,14,15)         -0.2922         estimate D2E/DX2                !
 ! D55   D(17,13,14,6)           0.7872         estimate D2E/DX2                !
 ! D56   D(17,13,14,15)       -179.393          estimate D2E/DX2                !
 ! D57   D(6,14,15,16)        -179.9854         estimate D2E/DX2                !
 ! D58   D(6,14,15,18)           1.0139         estimate D2E/DX2                !
 ! D59   D(13,14,15,16)          0.1948         estimate D2E/DX2                !
 ! D60   D(13,14,15,18)       -178.8059         estimate D2E/DX2                !
 ! D61   D(14,15,16,11)          0.0724         estimate D2E/DX2                !
 ! D62   D(14,15,16,20)       -178.7679         estimate D2E/DX2                !
 ! D63   D(18,15,16,11)        179.0718         estimate D2E/DX2                !
 ! D64   D(18,15,16,20)          0.2314         estimate D2E/DX2                !
 ! D65   D(11,16,20,21)       -166.7199         estimate D2E/DX2                !
 ! D66   D(11,16,20,22)        -47.7003         estimate D2E/DX2                !
 ! D67   D(11,16,20,23)         71.6619         estimate D2E/DX2                !
 ! D68   D(15,16,20,21)         12.0957         estimate D2E/DX2                !
 ! D69   D(15,16,20,22)        131.1153         estimate D2E/DX2                !
 ! D70   D(15,16,20,23)       -109.5224         estimate D2E/DX2                !
 --------------------------------------------------------------------------------
 Trust Radius=3.00D-01 FncErr=1.00D-07 GrdErr=1.00D-06 EigMax=2.50D+02 EigMin=1.00D-04
 Number of steps in this run=    166 maximum allowed number of steps=    186.
 GradGradGradGradGradGradGradGradGradGradGradGradGradGradGradGradGradGrad

                          Input orientation:                          
 ---------------------------------------------------------------------
 Center     Atomic      Atomic             Coordinates (Angstroms)
 Number     Number       Type             X           Y           Z
 ---------------------------------------------------------------------
      1          6           0       -5.246400   -0.233000    0.889200
      2          6           0       -4.829800    0.886900    1.604900
      3          6           0       -3.969300    0.731300    2.688000
      4          6           0       -3.524300   -0.534400    3.059500
      5          6           0       -3.945200   -1.651100    2.341300
      6          6           0       -4.810700   -1.515900    1.247400
      7          1           0       -3.644400    1.598900    3.244200
      8          1           0       -3.583200   -2.627000    2.629500
      9          1           0       -5.175800    1.870600    1.322100
     10          1           0       -5.924800   -0.102600    0.059000
     11          6           0       -6.112800   -4.985500   -0.978700
     12          6           0       -5.974700   -5.047400    0.420300
     13          6           0       -5.551400   -3.918800    1.127000
     14          6           0       -5.259700   -2.714500    0.478700
     15          6           0       -5.397600   -2.667900   -0.912100
     16          6           0       -5.817100   -3.781600   -1.644500
     17          1           0       -5.460700   -3.972600    2.201600
     18          1           0       -5.158500   -1.753000   -1.433400
     19          1           0       -2.853500   -0.650500    3.898400
     20          6           0       -5.914400   -3.656700   -3.159200
     21          1           0       -5.437200   -2.748900   -3.529900
     22          1           0       -5.413200   -4.496500   -3.641000
     23          1           0       -6.957600   -3.659700   -3.475500
     24          6           0       -6.255300   -6.325700    1.199200
     25          1           0       -5.890800   -6.272100    2.225600
     26          1           0       -7.325300   -6.533300    1.217300
     27          1           0       -5.755100   -7.172800    0.729200
     28          6           0       -6.597200   -6.205100   -1.763400
     29          1           0       -7.165500   -5.919200   -2.647500
     30          1           0       -5.751200   -6.818500   -2.073200
     31          1           0       -7.279900   -6.819400   -1.177800
 ---------------------------------------------------------------------
                    Distance matrix (angstroms):
                    1          2          3          4          5
     1  C    0.000000
     2  C    1.392824   0.000000
     3  C    2.407601   1.392041   0.000000
     4  C    2.786875   2.416668   1.392133   0.000000
     5  C    2.410959   2.786799   2.407615   1.392834   0.000000
     6  C    1.401419   2.429325   2.798784   2.429377   1.401423
     7  H    3.386486   2.144626   1.080578   2.144646   3.386474
     8  H    3.395013   3.866692   3.380928   2.137135   1.080039
     9  H    2.148841   1.080443   2.149263   3.395591   3.867236
    10  H    1.080029   2.137274   3.380978   3.866762   3.394932
    11  C    5.179378   6.542642   7.121874   6.543675   5.180648
    12  C    4.891701   6.158733   6.523608   5.773821   4.398177
    13  C    3.706035   4.883016   5.153949   4.392932   3.032634
    14  C    2.515259   3.797792   4.291815   3.798023   2.515553
    15  C    3.032537   4.392526   5.153186   4.882078   3.705126
    16  C    4.397487   5.773063   6.523127   6.158641   4.891793
    17  H    3.968996   4.936479   4.958582   4.038175   2.775900
    18  H    2.777156   4.038364   4.957003   4.933736   3.966212
    19  H    3.867242   3.395512   2.149290   1.080373   2.148853
    20  C    5.343921   6.672129   7.564900   7.357552   6.177028
    21  H    5.088674   6.320929   7.275218   7.209951   6.156478
    22  H    6.223180   7.539285   8.334925   8.010174   6.785222
    23  H    5.806986   7.142098   8.136311   8.016313   6.851583
    24  C    6.183443   7.363304   7.565948   6.667701   5.337868
    25  H    6.218677   7.263764   7.276922   6.262341   5.015216
    26  H    6.642534   7.838184   8.136345   7.336764   6.043536
    27  H    6.960259   8.159767   8.336713   7.380726   6.030238
    28  C    6.672850   8.047708   8.650692   8.053566   6.679864
    29  H    6.965921   8.358313   9.105625   8.650102   7.312669
    30  H    7.238746   8.587816   9.101850   8.413894   7.032174
    31  H    7.196407   8.551811   9.105908   8.459342   7.086298
                    6          7          8          9         10
     6  C    0.000000
     7  H    3.879361   0.000000
     8  H    2.156734   4.270812   0.000000
     9  H    3.406943   2.472544   4.947128   0.000000
    10  H    2.156602   4.270928   4.296877   2.459663   0.000000
    11  C    4.323090   8.202451   4.998050   7.292308   4.995486
    12  C    3.809263   7.588018   4.056867   7.022123   4.958233
    13  C    2.517352   6.210008   2.792860   5.804851   3.980381
    14  C    1.493031   5.372393   2.728415   4.662779   2.727733
    15  C    2.516942   6.209197   3.979529   5.063480   2.793159
    16  C    3.809111   7.587476   4.958880   6.415555   4.055682
    17  H    2.714475   5.952107   2.349201   5.915883   4.447811
    18  H    2.713645   5.950435   4.444390   4.552313   2.353358
    19  H    3.406956   2.472509   2.459496   4.287930   4.947127
    20  C    5.021882   8.589398   6.324858   7.153924   4.794637
    21  H    4.973468   8.246571   6.433536   6.704477   4.485628
    22  H    5.757034   9.364216   6.794343   8.076428   5.766983
    23  H    5.613452   9.153389   7.051530   7.534985   5.119798
    24  C    5.022287   8.590583   4.781868   8.267996   6.335318
    25  H    4.974428   8.248424   4.333002   8.223813   6.538963
    26  H    5.612345   9.153689   5.590778   8.675072   6.682586
    27  H    5.758554   9.366056   5.384477   9.081311   7.103921
    28  C    5.851931   9.731264   6.417520   8.761143   6.404199
    29  H    6.332802  10.179985   7.177617   8.966472   6.534318
    30  H    6.326807  10.176737   6.662153   9.346636   7.048385
    31  H    6.332903  10.180310   6.762939   9.284010   6.962857
                   11         12         13         14         15
    11  C    0.000000
    12  C    1.407162   0.000000
    13  C    2.426312   1.397264   0.000000
    14  C    2.830059   2.440708   1.398471   0.000000
    15  C    2.426359   2.787536   2.397151   1.398396   0.000000
    16  C    1.407161   2.427032   2.787585   2.440774   1.397397
    17  H    3.400810   2.142993   1.079762   2.142802   3.376589
    18  H    3.400955   3.867229   3.376493   2.142627   1.079798
    19  H    7.293927   6.416525   5.063705   4.663072   5.803728
    20  C    2.561182   3.840638   4.309522   3.814537   2.508838
    21  H    3.459398   4.601748   4.802960   4.012675   2.619352
    22  H    2.795783   4.136778   4.804858   4.491215   3.284953
    23  H    2.950499   4.250772   4.819496   4.405901   3.160425
    24  C    2.561189   1.522981   2.508756   3.814591   4.309610
    25  H    3.460081   2.183126   2.619186   4.013286   4.804026
    26  H    2.947585   2.160377   3.160773   4.404028   4.815775
    27  H    2.798062   2.158928   3.284548   4.492729   4.807889
    28  C    1.528994   2.548788   3.830832   4.358923   3.830866
    29  H    2.182857   3.404326   4.566593   4.865727   4.087546
    30  H    2.165311   3.066641   4.323131   4.857631   4.324427
    31  H    2.182877   2.719826   4.088190   4.865738   4.566027
                   16         17         18         19         20
    16  C    0.000000
    17  H    3.867297   0.000000
    18  H    2.143253   4.269798   0.000000
    19  H    7.022140   4.551150   5.912413   0.000000
    20  C    1.522952   5.389231   2.678403   8.259302   0.000000
    21  H    2.183009   5.860724   2.337692   8.139928   1.090522
    22  H    2.158756   5.866234   3.530604   8.842304   1.090228
    23  H    2.160593   5.879463   3.323016   8.959538   1.090101
    24  C    3.840715   2.678297   5.389169   7.146035   5.122053
    25  H    4.602792   2.339500   5.860615   6.604986   5.986397
    26  H    4.246931   3.317041   5.879839   7.860829   5.423949
    27  H    4.139871   3.534956   5.865748   7.810474   5.244806
    28  C    2.548734   4.690087   4.690411   8.770681   2.984764
    29  H    2.719104   5.496305   4.781141   9.444647   2.635525
    30  H    3.067717   5.143681   5.140032   9.060954   3.347090
    31  H    3.403795   4.778504   5.498552   9.133244   3.974067
                   21         22         23         24         25
    21  H    0.000000
    22  H    1.751292   0.000000
    23  H    1.773170   1.764312   0.000000
    24  C    5.985580   5.242389   5.427117   0.000000
    25  H    6.763466   6.147996   6.361229   1.090518   0.000000
    26  H    6.357870   5.604263   5.514993   1.090103   1.772762
    27  H    6.149137   5.135964   5.609579   1.090265   1.751824
    28  C    4.051104   2.801170   3.088727   2.984701   4.051618
    29  H    3.717049   2.466105   2.415398   3.973765   5.049406
    30  H    4.333845   2.822043   3.660582   3.347472   4.335634
    31  H    5.049444   3.866237   3.920077   2.635085   3.716486
                   26         27         28         29         30
    26  H    0.000000
    27  H    1.764293   0.000000
    28  C    3.085841   2.803325   0.000000
    29  H    3.916546   3.868184   1.089191   0.000000
    30  H    3.658759   2.824711   1.089932   1.771667   0.000000
    31  H    2.412554   2.467095   1.089207   1.727271   1.771628
                   31
    31  H    0.000000
 Stoichiometry    C15H16
 Framework group  C1[X(C15H16)]
 Deg. of freedom    87
 Full point group                 C1      NOp   1
 Largest Abelian subgroup         C1      NOp   1
 Largest concise Abelian subgroup C1      NOp   1
                         Standard orientation:                         
 ---------------------------------------------------------------------
 Center     Atomic      Atomic             Coordinates (Angstroms)
 Number     Number       Type             X           Y           Z
 ---------------------------------------------------------------------
      1          6           0        2.419108   -1.038797   -0.614024
      2          6           0        3.811929   -1.041083   -0.616030
      3          6           0        4.503341   -0.000478   -0.002133
      4          6           0        3.812242    1.040433    0.611805
      5          6           0        2.419410    1.038585    0.609581
      6          6           0        1.704557    0.000046   -0.002308
      7          1           0        5.583918   -0.000667   -0.002019
      8          1           0        1.893132    1.843867    1.100535
      9          1           0        4.352059   -1.845174   -1.094626
     10          1           0        1.892418   -1.843854   -1.104883
     11          6           0       -2.618532   -0.000886   -0.005029
     12          6           0       -1.906382    1.201752   -0.168146
     13          6           0       -0.509197    1.187613   -0.163667
     14          6           0        0.211526    0.000046   -0.002538
     15          6           0       -0.508626   -1.187278    0.162255
     16          6           0       -1.905939   -1.202467    0.163843
     17          1           0        0.028177    2.113848   -0.302247
     18          1           0        0.029339   -2.112167    0.307647
     19          1           0        4.352608    1.844246    1.090442
     20          6           0       -2.614820   -2.533310    0.377685
     21          1           0       -1.933443   -3.313785    0.718013
     22          1           0       -3.386459   -2.432505    1.141235
     23          1           0       -3.093658   -2.862443   -0.544653
     24          6           0       -2.615933    2.539405   -0.331531
     25          1           0       -1.934853    3.384025   -0.222094
     26          1           0       -3.094905    2.599335   -1.308936
     27          1           0       -3.387658    2.653980    0.430041
     28          6           0       -4.147302   -0.004798   -0.030904
     29          1           0       -4.543811   -0.933725   -0.438596
     30          1           0       -4.544978    0.135344    0.974166
     31          1           0       -4.544168    0.776989   -0.677184
 ---------------------------------------------------------------------
 Rotational constants (GHZ):           1.3199323           0.3290545           0.2728103
 Standard basis: def2TZVP (5D, 7F)
 There are   636 symmetry adapted cartesian basis functions of A   symmetry.
 There are   561 symmetry adapted basis functions of A   symmetry.
   561 basis functions,   893 primitive gaussians,   636 cartesian basis functions
    53 alpha electrons       53 beta electrons
       nuclear repulsion energy       897.1805445305 Hartrees.
 NAtoms=   31 NActive=   31 NUniq=   31 SFac= 1.00D+00 NAtFMM=   60 NAOKFM=F Big=F
 Integral buffers will be    131072 words long.
 Raffenetti 2 integral format.
 Two-electron integral symmetry is turned on.
 One-electron integrals computed using PRISM.
   1 Symmetry operations used in ECPInt.
 ECPInt:  NShTT=   26335 NPrTT=   78984 LenC2=   23762 LenP2D=   52750.
 LDataN:  DoStor=T MaxTD1= 6 Len=  172
 NBasis=   561 RedAO= T EigKep=  4.34D-06  NBF=   561
 NBsUse=   561 1.00D-06 EigRej= -1.00D+00 NBFU=   561
 ExpMin= 9.52D-02 ExpMax= 1.36D+04 ExpMxC= 4.63D+02 IAcc=3 IRadAn=         5 AccDes= 0.00D+00
 Harris functional with IExCor= 1009 and IRadAn=       5 diagonalized for initial guess.
 HarFok:  IExCor= 1009 AccDes= 0.00D+00 IRadAn=         5 IDoV= 1 UseB2=F ITyADJ=14
 ICtDFT=  3500011 ScaDFX=  1.000000  1.000000  1.000000  1.000000
 FoFCou: FMM=F IPFlag=           0 FMFlag=      100000 FMFlg1=           0
         NFxFlg=           0 DoJE=T BraDBF=F KetDBF=T FulRan=T
         wScrn=  0.000000 ICntrl=       500 IOpCl=  0 I1Cent=   200000004 NGrid=           0
         NMat0=    1 NMatS0=      1 NMatT0=    0 NMatD0=    1 NMtDS0=    0 NMtDT0=    0
 Petite list used in FoFCou.
 Requested convergence on RMS density matrix=1.00D-08 within 128 cycles.
 Requested convergence on MAX density matrix=1.00D-06.
 Requested convergence on             energy=1.00D-06.
 No special actions if energy rises.
 Integral accuracy reduced to 1.0D-05 until final iterations.
 Problem detected with inexpensive integrals.
 Switching to full accuracy and repeating last cycle.
 SCF Done:  E(RM062X) =  -581.196124330     A.U. after   13 cycles
            NFock= 13  Conv=0.89D-08     -V/T= 2.0056

 **********************************************************************

            Population analysis using the SCF Density.

 **********************************************************************

 Orbital symmetries:
       Occupied  (A) (A) (A) (A) (A) (A) (A) (A) (A) (A) (A) (A)
                 (A) (A) (A) (A) (A) (A) (A) (A) (A) (A) (A) (A)
                 (A) (A) (A) (A) (A) (A) (A) (A) (A) (A) (A) (A)
                 (A) (A) (A) (A) (A) (A) (A) (A) (A) (A) (A) (A)
                 (A) (A) (A) (A) (A)
       Virtual   (A) (A) (A) (A) (A) (A) (A) (A) (A) (A) (A) (A)
                 (A) (A) (A) (A) (A) (A) (A) (A) (A) (A) (A) (A)
                 (A) (A) (A) (A) (A) (A) (A) (A) (A) (A) (A) (A)
                 (A) (A) (A) (A) (A) (A) (A) (A) (A) (A) (A) (A)
                 (A) (A) (A) (A) (A) (A) (A) (A) (A) (A) (A) (A)
                 (A) (A) (A) (A) (A) (A) (A) (A) (A) (A) (A) (A)
                 (A) (A) (A) (A) (A) (A) (A) (A) (A) (A) (A) (A)
                 (A) (A) (A) (A) (A) (A) (A) (A) (A) (A) (A) (A)
                 (A) (A) (A) (A) (A) (A) (A) (A) (A) (A) (A) (A)
                 (A) (A) (A) (A) (A) (A) (A) (A) (A) (A) (A) (A)
                 (A) (A) (A) (A) (A) (A) (A) (A) (A) (A) (A) (A)
                 (A) (A) (A) (A) (A) (A) (A) (A) (A) (A) (A) (A)
                 (A) (A) (A) (A) (A) (A) (A) (A) (A) (A) (A) (A)
                 (A) (A) (A) (A) (A) (A) (A) (A) (A) (A) (A) (A)
                 (A) (A) (A) (A) (A) (A) (A) (A) (A) (A) (A) (A)
                 (A) (A) (A) (A) (A) (A) (A) (A) (A) (A) (A) (A)
                 (A) (A) (A) (A) (A) (A) (A) (A) (A) (A) (A) (A)
                 (A) (A) (A) (A) (A) (A) (A) (A) (A) (A) (A) (A)
                 (A) (A) (A) (A) (A) (A) (A) (A) (A) (A) (A) (A)
                 (A) (A) (A) (A) (A) (A) (A) (A) (A) (A) (A) (A)
                 (A) (A) (A) (A) (A) (A) (A) (A) (A) (A) (A) (A)
                 (A) (A) (A) (A) (A) (A) (A) (A) (A) (A) (A) (A)
                 (A) (A) (A) (A) (A) (A) (A) (A) (A) (A) (A) (A)
                 (A) (A) (A) (A) (A) (A) (A) (A) (A) (A) (A) (A)
                 (A) (A) (A) (A) (A) (A) (A) (A) (A) (A) (A) (A)
                 (A) (A) (A) (A) (A) (A) (A) (A) (A) (A) (A) (A)
                 (A) (A) (A) (A) (A) (A) (A) (A) (A) (A) (A) (A)
                 (A) (A) (A) (A) (A) (A) (A) (A) (A) (A) (A) (A)
                 (A) (A) (A) (A) (A) (A) (A) (A) (A) (A) (A) (A)
                 (A) (A) (A) (A) (A) (A) (A) (A) (A) (A) (A) (A)
                 (A) (A) (A) (A) (A) (A) (A) (A) (A) (A) (A) (A)
                 (A) (A) (A) (A) (A) (A) (A) (A) (A) (A) (A) (A)
                 (A) (A) (A) (A) (A) (A) (A) (A) (A) (A) (A) (A)
                 (A) (A) (A) (A) (A) (A) (A) (A) (A) (A) (A) (A)
                 (A) (A) (A) (A) (A) (A) (A) (A) (A) (A) (A) (A)
                 (A) (A) (A) (A) (A) (A) (A) (A) (A) (A) (A) (A)
                 (A) (A) (A) (A) (A) (A) (A) (A) (A) (A) (A) (A)
                 (A) (A) (A) (A) (A) (A) (A) (A) (A) (A) (A) (A)
                 (A) (A) (A) (A) (A) (A) (A) (A) (A) (A) (A) (A)
                 (A) (A) (A) (A) (A) (A) (A) (A) (A) (A) (A) (A)
                 (A) (A) (A) (A) (A) (A) (A) (A) (A) (A) (A) (A)
                 (A) (A) (A) (A) (A) (A) (A) (A) (A) (A) (A) (A)
                 (A) (A) (A) (A)
 The electronic state is 1-A.
 Alpha  occ. eigenvalues --  -10.55081 -10.54679 -10.54660 -10.54538 -10.54504
 Alpha  occ. eigenvalues --  -10.54003 -10.53994 -10.53897 -10.53893 -10.53780
 Alpha  occ. eigenvalues --  -10.53201 -10.53145 -10.53139 -10.53125 -10.53120
 Alpha  occ. eigenvalues --   -0.97259  -0.95302  -0.88653  -0.87650  -0.84124
 Alpha  occ. eigenvalues --   -0.83234  -0.80303  -0.76810  -0.75699  -0.69054
 Alpha  occ. eigenvalues --   -0.68865  -0.64834  -0.63896  -0.59332  -0.55369
 Alpha  occ. eigenvalues --   -0.54821  -0.52893  -0.51288  -0.50753  -0.49057
 Alpha  occ. eigenvalues --   -0.48706  -0.48185  -0.47060  -0.46731  -0.46209
 Alpha  occ. eigenvalues --   -0.45888  -0.45187  -0.43927  -0.43173  -0.41253
 Alpha  occ. eigenvalues --   -0.40872  -0.40178  -0.38258  -0.37860  -0.32096
 Alpha  occ. eigenvalues --   -0.30654  -0.28926  -0.26787
 Alpha virt. eigenvalues --   -0.00013   0.02138   0.03046   0.05593   0.06222
 Alpha virt. eigenvalues --    0.08585   0.08705   0.09918   0.10722   0.12567
 Alpha virt. eigenvalues --    0.12589   0.12885   0.13216   0.13658   0.14477
 Alpha virt. eigenvalues --    0.15027   0.15640   0.16527   0.16668   0.17768
 Alpha virt. eigenvalues --    0.18066   0.18375   0.19336   0.19799   0.20674
 Alpha virt. eigenvalues --    0.21680   0.21968   0.23337   0.23360   0.24608
 Alpha virt. eigenvalues --    0.24857   0.25148   0.25812   0.26187   0.26868
 Alpha virt. eigenvalues --    0.27346   0.27865   0.28805   0.29216   0.29644
 Alpha virt. eigenvalues --    0.30216   0.31098   0.32100   0.32478   0.32599
 Alpha virt. eigenvalues --    0.33079   0.33530   0.34386   0.35887   0.36538
 Alpha virt. eigenvalues --    0.36994   0.37403   0.38251   0.38637   0.39388
 Alpha virt. eigenvalues --    0.39786   0.40603   0.40826   0.41010   0.41614
 Alpha virt. eigenvalues --    0.42276   0.42799   0.43129   0.44583   0.44857
 Alpha virt. eigenvalues --    0.45310   0.45758   0.46242   0.46391   0.46955
 Alpha virt. eigenvalues --    0.47539   0.48528   0.49561   0.49854   0.50078
 Alpha virt. eigenvalues --    0.50623   0.50989   0.51204   0.52121   0.52498
 Alpha virt. eigenvalues --    0.53326   0.53514   0.54280   0.54899   0.55210
 Alpha virt. eigenvalues --    0.55820   0.56856   0.57370   0.57514   0.58854
 Alpha virt. eigenvalues --    0.59238   0.61276   0.61809   0.62529   0.64370
 Alpha virt. eigenvalues --    0.65466   0.66271   0.67327   0.68315   0.69419
 Alpha virt. eigenvalues --    0.70159   0.70484   0.71140   0.72417   0.73477
 Alpha virt. eigenvalues --    0.74008   0.74493   0.75431   0.76077   0.76353
 Alpha virt. eigenvalues --    0.76861   0.77493   0.78493   0.79074   0.80022
 Alpha virt. eigenvalues --    0.81024   0.82942   0.83928   0.84477   0.84977
 Alpha virt. eigenvalues --    0.86127   0.87081   0.88203   0.89134   0.90125
 Alpha virt. eigenvalues --    0.90529   0.92036   0.92452   0.93070   0.95392
 Alpha virt. eigenvalues --    0.95749   0.97255   0.97426   0.98557   0.99396
 Alpha virt. eigenvalues --    1.00029   1.01643   1.02147   1.02555   1.04239
 Alpha virt. eigenvalues --    1.04855   1.05825   1.07740   1.07934   1.08919
 Alpha virt. eigenvalues --    1.09948   1.10678   1.11811   1.12788   1.14984
 Alpha virt. eigenvalues --    1.15747   1.17952   1.19357   1.19958   1.21173
 Alpha virt. eigenvalues --    1.22236   1.22939   1.23730   1.24328   1.25020
 Alpha virt. eigenvalues --    1.25540   1.26502   1.27846   1.28168   1.29621
 Alpha virt. eigenvalues --    1.31419   1.32604   1.34094   1.34571   1.35287
 Alpha virt. eigenvalues --    1.35809   1.38533   1.39499   1.40221   1.40345
 Alpha virt. eigenvalues --    1.44638   1.45228   1.46279   1.47145   1.48044
 Alpha virt. eigenvalues --    1.48702   1.50323   1.52016   1.52447   1.52761
 Alpha virt. eigenvalues --    1.54984   1.55625   1.56846   1.56918   1.57198
 Alpha virt. eigenvalues --    1.58134   1.58970   1.59609   1.59817   1.60473
 Alpha virt. eigenvalues --    1.60928   1.61171   1.62019   1.63288   1.65013
 Alpha virt. eigenvalues --    1.65738   1.67818   1.68592   1.69420   1.70142
 Alpha virt. eigenvalues --    1.70792   1.71404   1.71704   1.73662   1.74417
 Alpha virt. eigenvalues --    1.74628   1.75706   1.75921   1.76236   1.77508
 Alpha virt. eigenvalues --    1.79269   1.79710   1.82092   1.82881   1.83601
 Alpha virt. eigenvalues --    1.85791   1.89738   1.90490   1.91530   1.93747
 Alpha virt. eigenvalues --    1.95513   1.97484   1.98456   1.99680   2.00763
 Alpha virt. eigenvalues --    2.02189   2.03513   2.03925   2.04593   2.05556
 Alpha virt. eigenvalues --    2.05874   2.07491   2.08477   2.09351   2.10525
 Alpha virt. eigenvalues --    2.11123   2.11556   2.12233   2.13855   2.16210
 Alpha virt. eigenvalues --    2.16850   2.18108   2.18593   2.20657   2.22162
 Alpha virt. eigenvalues --    2.23006   2.23278   2.24425   2.25626   2.26590
 Alpha virt. eigenvalues --    2.27483   2.27890   2.29368   2.32082   2.34963
 Alpha virt. eigenvalues --    2.35569   2.36094   2.37324   2.38532   2.40471
 Alpha virt. eigenvalues --    2.40817   2.41507   2.42087   2.44304   2.45362
 Alpha virt. eigenvalues --    2.47586   2.48061   2.49195   2.50441   2.51530
 Alpha virt. eigenvalues --    2.52397   2.54597   2.55743   2.55957   2.56163
 Alpha virt. eigenvalues --    2.57703   2.58462   2.59020   2.60637   2.61225
 Alpha virt. eigenvalues --    2.61939   2.63123   2.64235   2.65078   2.66653
 Alpha virt. eigenvalues --    2.67038   2.67752   2.68389   2.68928   2.68985
 Alpha virt. eigenvalues --    2.70027   2.71916   2.72129   2.72745   2.73046
 Alpha virt. eigenvalues --    2.75104   2.75657   2.77085   2.78404   2.79071
 Alpha virt. eigenvalues --    2.79844   2.81103   2.81302   2.82506   2.83296
 Alpha virt. eigenvalues --    2.83957   2.84346   2.86116   2.86791   2.87203
 Alpha virt. eigenvalues --    2.88617   2.89675   2.91633   2.93592   2.94293
 Alpha virt. eigenvalues --    2.94465   2.94786   2.96118   2.97161   2.97552
 Alpha virt. eigenvalues --    2.99129   3.00266   3.00797   3.01448   3.02683
 Alpha virt. eigenvalues --    3.03448   3.04798   3.05397   3.06908   3.07823
 Alpha virt. eigenvalues --    3.08287   3.08899   3.10359   3.12366   3.12570
 Alpha virt. eigenvalues --    3.13820   3.14422   3.15110   3.15454   3.16088
 Alpha virt. eigenvalues --    3.16873   3.17306   3.17940   3.18476   3.19376
 Alpha virt. eigenvalues --    3.20406   3.21152   3.21704   3.22427   3.23725
 Alpha virt. eigenvalues --    3.25430   3.26289   3.26539   3.27045   3.27893
 Alpha virt. eigenvalues --    3.29236   3.30193   3.30444   3.30849   3.31924
 Alpha virt. eigenvalues --    3.32268   3.32909   3.33609   3.34462   3.35041
 Alpha virt. eigenvalues --    3.35727   3.36541   3.37301   3.37519   3.39183
 Alpha virt. eigenvalues --    3.39927   3.41182   3.41941   3.43399   3.44076
 Alpha virt. eigenvalues --    3.44336   3.44845   3.46354   3.47472   3.48848
 Alpha virt. eigenvalues --    3.49128   3.51124   3.52336   3.52960   3.53428
 Alpha virt. eigenvalues --    3.55196   3.56237   3.56657   3.57625   3.58485
 Alpha virt. eigenvalues --    3.60370   3.60685   3.63003   3.63214   3.63686
 Alpha virt. eigenvalues --    3.64933   3.65544   3.68530   3.69256   3.69397
 Alpha virt. eigenvalues --    3.71782   3.73736   3.74970   3.77390   3.78666
 Alpha virt. eigenvalues --    3.80026   3.80654   3.81864   3.82789   3.84575
 Alpha virt. eigenvalues --    3.87232   3.90417   3.90574   3.92798   3.95793
 Alpha virt. eigenvalues --    3.96301   3.97939   3.98202   4.00479   4.01008
 Alpha virt. eigenvalues --    4.03163   4.05189   4.08241   4.09949   4.11889
 Alpha virt. eigenvalues --    4.12287   4.13978   4.15174   4.15974   4.16523
 Alpha virt. eigenvalues --    4.17194   4.17668   4.18835   4.19687   4.20099
 Alpha virt. eigenvalues --    4.20425   4.22017   4.24038   4.25300   4.26336
 Alpha virt. eigenvalues --    4.28162   4.28772   4.29936   4.31073   4.31944
 Alpha virt. eigenvalues --    4.32658   4.35484   4.36612   4.40513   4.41861
 Alpha virt. eigenvalues --    4.42118   4.43574   4.44665   4.49412   4.50872
 Alpha virt. eigenvalues --    4.51692   4.55795   4.58329   4.61323   4.62401
 Alpha virt. eigenvalues --    4.64015   4.66874   4.68293   4.70951   4.72435
 Alpha virt. eigenvalues --    4.72668   4.77464   4.80295   4.85138   4.88858
 Alpha virt. eigenvalues --    4.89289   4.95703   4.99319   5.02972   5.13256
 Alpha virt. eigenvalues --    5.16862   5.20005   5.21605   5.25211   5.28266
 Alpha virt. eigenvalues --    5.34654   5.39462   5.40098   5.46753   5.55435
 Alpha virt. eigenvalues --    5.56410   5.60547   5.78032  22.05128  22.41812
 Alpha virt. eigenvalues --   22.50040  22.53755  22.60265  22.68903  22.71707
 Alpha virt. eigenvalues --   22.84900  22.89533  22.97714  23.01278  23.14457
 Alpha virt. eigenvalues --   23.15244  23.37712  23.66794
          Condensed to atoms (all electrons):
               1          2          3          4          5          6
     1  C    5.017782   0.508115  -0.045564  -0.045850  -0.033593   0.508235
     2  C    0.508115   4.900534   0.524991  -0.039556  -0.046432  -0.057040
     3  C   -0.045564   0.524991   4.879546   0.524989  -0.045119  -0.039869
     4  C   -0.045850  -0.039556   0.524989   4.899923   0.508093  -0.056531
     5  C   -0.033593  -0.046432  -0.045119   0.508093   5.018960   0.503745
     6  C    0.508235  -0.057040  -0.039869  -0.056531   0.503745   4.975917
     7  H    0.004223  -0.035080   0.410294  -0.035047   0.004253   0.000921
     8  H    0.005346  -0.000093   0.002431  -0.022582   0.394564  -0.035507
     9  H   -0.031322   0.408163  -0.031705   0.003664   0.000008   0.004511
    10  H    0.394820  -0.022725   0.002424  -0.000085   0.005350  -0.035022
    11  C    0.000082  -0.000045   0.000013  -0.000030  -0.000084   0.011075
    12  C   -0.000589   0.000170  -0.000062  -0.000060   0.004793  -0.004424
    13  C    0.009944  -0.000662   0.000093   0.001059  -0.004757  -0.067457
    14  C   -0.085383   0.006655  -0.002508   0.005954  -0.079379   0.256002
    15  C   -0.003517   0.000738   0.000132  -0.000677   0.009400  -0.068590
    16  C    0.003917  -0.000135  -0.000054   0.000143  -0.000571  -0.000931
    17  H   -0.000199  -0.000104  -0.000068   0.000810   0.003629   0.002991
    18  H    0.003680   0.000804  -0.000073  -0.000109  -0.000204   0.003169
    19  H    0.000026   0.003647  -0.031760   0.408214  -0.031401   0.004601
    20  C    0.000322   0.000012  -0.000001   0.000001   0.000037  -0.001494
    21  H    0.000112   0.000001   0.000000   0.000001  -0.000007   0.000005
    22  H   -0.000015  -0.000000   0.000000  -0.000000   0.000004  -0.000013
    23  H    0.000011  -0.000000   0.000000   0.000000  -0.000005  -0.000042
    24  C    0.000035  -0.000000  -0.000000  -0.000009   0.000096  -0.000928
    25  H   -0.000002  -0.000000   0.000000  -0.000004   0.000050   0.000187
    26  H    0.000005  -0.000000   0.000000  -0.000000  -0.000012  -0.000034
    27  H   -0.000003   0.000000   0.000000   0.000000   0.000014  -0.000071
    28  C   -0.000013  -0.000000   0.000000  -0.000000   0.000001   0.000137
    29  H    0.000001   0.000000  -0.000000  -0.000000   0.000000  -0.000005
    30  H   -0.000000  -0.000000   0.000000   0.000000   0.000000  -0.000006
    31  H   -0.000000   0.000000   0.000000  -0.000000  -0.000001   0.000007
               7          8          9         10         11         12
     1  C    0.004223   0.005346  -0.031322   0.394820   0.000082  -0.000589
     2  C   -0.035080  -0.000093   0.408163  -0.022725  -0.000045   0.000170
     3  C    0.410294   0.002431  -0.031705   0.002424   0.000013  -0.000062
     4  C   -0.035047  -0.022582   0.003664  -0.000085  -0.000030  -0.000060
     5  C    0.004253   0.394564   0.000008   0.005350  -0.000084   0.004793
     6  C    0.000921  -0.035507   0.004511  -0.035022   0.011075  -0.004424
     7  H    0.518921  -0.000297  -0.004088  -0.000295   0.000000  -0.000000
     8  H   -0.000297   0.491711   0.000069  -0.000231  -0.000176   0.001873
     9  H   -0.004088   0.000069   0.511914  -0.003383   0.000000   0.000000
    10  H   -0.000295  -0.000231  -0.003383   0.491190  -0.000189  -0.000007
    11  C    0.000000  -0.000176   0.000000  -0.000189   5.404957   0.417449
    12  C   -0.000000   0.001873   0.000000  -0.000007   0.417449   5.132898
    13  C   -0.000008   0.003000   0.000029  -0.000204  -0.050436   0.481134
    14  C    0.000123   0.003319  -0.000181   0.002598  -0.049307  -0.048691
    15  C   -0.000008  -0.000185   0.000032   0.003308  -0.061462  -0.065201
    16  C   -0.000000  -0.000030   0.000004   0.001686   0.416731  -0.031574
    17  H   -0.000000  -0.002263   0.000002   0.000033   0.008193  -0.015193
    18  H    0.000000   0.000032   0.000053  -0.002299   0.009126  -0.001008
    19  H   -0.004084  -0.003413  -0.000282   0.000069  -0.000000   0.000002
    20  C   -0.000000   0.000006   0.000000   0.000212  -0.072836   0.016893
    21  H   -0.000000   0.000000   0.000000   0.000064   0.016242  -0.001108
    22  H    0.000000   0.000000  -0.000000  -0.000000  -0.020623   0.001795
    23  H   -0.000000  -0.000000  -0.000000  -0.000023  -0.001846  -0.000227
    24  C   -0.000000   0.000163   0.000000   0.000005  -0.072024   0.197544
    25  H   -0.000000   0.000079   0.000000  -0.000000   0.016468  -0.045351
    26  H    0.000000   0.000004  -0.000000   0.000001  -0.006626  -0.048587
    27  H   -0.000000  -0.000015  -0.000000  -0.000000  -0.016589  -0.052790
    28  C    0.000000  -0.000001  -0.000000  -0.000002   0.164618  -0.051024
    29  H   -0.000000  -0.000000  -0.000000   0.000000  -0.048494   0.007638
    30  H   -0.000000   0.000000   0.000000  -0.000000  -0.053579  -0.002876
    31  H    0.000000  -0.000000  -0.000000   0.000000  -0.047055  -0.023591
              13         14         15         16         17         18
     1  C    0.009944  -0.085383  -0.003517   0.003917  -0.000199   0.003680
     2  C   -0.000662   0.006655   0.000738  -0.000135  -0.000104   0.000804
     3  C    0.000093  -0.002508   0.000132  -0.000054  -0.000068  -0.000073
     4  C    0.001059   0.005954  -0.000677   0.000143   0.000810  -0.000109
     5  C   -0.004757  -0.079379   0.009400  -0.000571   0.003629  -0.000204
     6  C   -0.067457   0.256002  -0.068590  -0.000931   0.002991   0.003169
     7  H   -0.000008   0.000123  -0.000008  -0.000000  -0.000000   0.000000
     8  H    0.003000   0.003319  -0.000185  -0.000030  -0.002263   0.000032
     9  H    0.000029  -0.000181   0.000032   0.000004   0.000002   0.000053
    10  H   -0.000204   0.002598   0.003308   0.001686   0.000033  -0.002299
    11  C   -0.050436  -0.049307  -0.061462   0.416731   0.008193   0.009126
    12  C    0.481134  -0.048691  -0.065201  -0.031574  -0.015193  -0.001008
    13  C    5.220728   0.470040  -0.040232  -0.072526   0.363974   0.008611
    14  C    0.470040   4.989256   0.475990  -0.055010  -0.020114  -0.021597
    15  C   -0.040232   0.475990   5.206273   0.495743   0.008295   0.362501
    16  C   -0.072526  -0.055010   0.495743   5.131676  -0.000799  -0.012482
    17  H    0.363974  -0.020114   0.008295  -0.000799   0.494173  -0.000304
    18  H    0.008611  -0.021597   0.362501  -0.012482  -0.000304   0.494505
    19  H    0.000030  -0.000168   0.000029   0.000000   0.000056   0.000002
    20  C   -0.002288   0.011019  -0.042192   0.195754   0.000049  -0.008982
    21  H    0.000531   0.003610  -0.011017  -0.047532  -0.000001   0.001986
    22  H   -0.000438  -0.000520   0.000567  -0.049561  -0.000007  -0.000158
    23  H    0.000563  -0.001503  -0.003237  -0.050797   0.000003   0.000568
    24  C   -0.043630   0.009641  -0.001880   0.016759  -0.007506   0.000049
    25  H   -0.012704   0.003354   0.000457  -0.001096   0.001886  -0.000001
    26  H   -0.005096  -0.000680  -0.000338   0.001606  -0.000192  -0.000005
    27  H    0.003002  -0.001065   0.000467  -0.000173   0.000286   0.000001
    28  C    0.011152  -0.000849   0.011827  -0.051341  -0.000211  -0.000215
    29  H   -0.000088  -0.000194   0.002842  -0.022296   0.000011  -0.000007
    30  H   -0.000567   0.000226  -0.000824  -0.004422   0.000013   0.000009
    31  H    0.002663  -0.000267  -0.000066   0.007974  -0.000011   0.000013
              19         20         21         22         23         24
     1  C    0.000026   0.000322   0.000112  -0.000015   0.000011   0.000035
     2  C    0.003647   0.000012   0.000001  -0.000000  -0.000000  -0.000000
     3  C   -0.031760  -0.000001   0.000000   0.000000   0.000000  -0.000000
     4  C    0.408214   0.000001   0.000001  -0.000000   0.000000  -0.000009
     5  C   -0.031401   0.000037  -0.000007   0.000004  -0.000005   0.000096
     6  C    0.004601  -0.001494   0.000005  -0.000013  -0.000042  -0.000928
     7  H   -0.004084  -0.000000  -0.000000   0.000000  -0.000000  -0.000000
     8  H   -0.003413   0.000006   0.000000   0.000000  -0.000000   0.000163
     9  H   -0.000282   0.000000   0.000000  -0.000000  -0.000000   0.000000
    10  H    0.000069   0.000212   0.000064  -0.000000  -0.000023   0.000005
    11  C   -0.000000  -0.072836   0.016242  -0.020623  -0.001846  -0.072024
    12  C    0.000002   0.016893  -0.001108   0.001795  -0.000227   0.197544
    13  C    0.000030  -0.002288   0.000531  -0.000438   0.000563  -0.043630
    14  C   -0.000168   0.011019   0.003610  -0.000520  -0.001503   0.009641
    15  C    0.000029  -0.042192  -0.011017   0.000567  -0.003237  -0.001880
    16  C    0.000000   0.195754  -0.047532  -0.049561  -0.050797   0.016759
    17  H    0.000056   0.000049  -0.000001  -0.000007   0.000003  -0.007506
    18  H    0.000002  -0.008982   0.001986  -0.000158   0.000568   0.000049
    19  H    0.511961   0.000000   0.000000  -0.000000   0.000000   0.000000
    20  C    0.000000   5.164476   0.411998   0.439765   0.425710   0.000358
    21  H    0.000000   0.411998   0.524000  -0.023041  -0.019731  -0.000007
    22  H   -0.000000   0.439765  -0.023041   0.535083  -0.038911   0.000086
    23  H    0.000000   0.425710  -0.019731  -0.038911   0.530476   0.000018
    24  C    0.000000   0.000358  -0.000007   0.000086   0.000018   5.161921
    25  H    0.000000  -0.000007  -0.000000   0.000001  -0.000001   0.410813
    26  H   -0.000000   0.000060  -0.000001   0.000009  -0.000016   0.430477
    27  H   -0.000000   0.000036   0.000001  -0.000032   0.000010   0.436600
    28  C   -0.000000  -0.005364   0.000428  -0.001067  -0.008981  -0.005391
    29  H    0.000000   0.003793   0.000503  -0.009055   0.000717  -0.001076
    30  H   -0.000000  -0.003283   0.000036   0.001540  -0.000222  -0.003493
    31  H    0.000000  -0.001133  -0.000024   0.000300   0.000310   0.003946
              25         26         27         28         29         30
     1  C   -0.000002   0.000005  -0.000003  -0.000013   0.000001  -0.000000
     2  C   -0.000000  -0.000000   0.000000  -0.000000   0.000000  -0.000000
     3  C    0.000000   0.000000   0.000000   0.000000  -0.000000   0.000000
     4  C   -0.000004  -0.000000   0.000000  -0.000000  -0.000000   0.000000
     5  C    0.000050  -0.000012   0.000014   0.000001   0.000000   0.000000
     6  C    0.000187  -0.000034  -0.000071   0.000137  -0.000005  -0.000006
     7  H   -0.000000   0.000000  -0.000000   0.000000  -0.000000  -0.000000
     8  H    0.000079   0.000004  -0.000015  -0.000001  -0.000000   0.000000
     9  H    0.000000  -0.000000  -0.000000  -0.000000  -0.000000   0.000000
    10  H   -0.000000   0.000001  -0.000000  -0.000002   0.000000  -0.000000
    11  C    0.016468  -0.006626  -0.016589   0.164618  -0.048494  -0.053579
    12  C   -0.045351  -0.048587  -0.052790  -0.051024   0.007638  -0.002876
    13  C   -0.012704  -0.005096   0.003002   0.011152  -0.000088  -0.000567
    14  C    0.003354  -0.000680  -0.001065  -0.000849  -0.000194   0.000226
    15  C    0.000457  -0.000338   0.000467   0.011827   0.002842  -0.000824
    16  C   -0.001096   0.001606  -0.000173  -0.051341  -0.022296  -0.004422
    17  H    0.001886  -0.000192   0.000286  -0.000211   0.000011   0.000013
    18  H   -0.000001  -0.000005   0.000001  -0.000215  -0.000007   0.000009
    19  H    0.000000  -0.000000  -0.000000  -0.000000   0.000000  -0.000000
    20  C   -0.000007   0.000060   0.000036  -0.005364   0.003793  -0.003283
    21  H   -0.000000  -0.000001   0.000001   0.000428   0.000503   0.000036
    22  H    0.000001   0.000009  -0.000032  -0.001067  -0.009055   0.001540
    23  H   -0.000001  -0.000016   0.000010  -0.008981   0.000717  -0.000222
    24  C    0.410813   0.430477   0.436600  -0.005391  -0.001076  -0.003493
    25  H    0.525844  -0.019291  -0.023517   0.000455  -0.000023   0.000030
    26  H   -0.019291   0.529045  -0.038924  -0.009916   0.000298  -0.000170
    27  H   -0.023517  -0.038924   0.535641   0.000105   0.000296   0.001513
    28  C    0.000455  -0.009916   0.000105   5.196287   0.431273   0.431823
    29  H   -0.000023   0.000298   0.000296   0.431273   0.529130  -0.027896
    30  H    0.000030  -0.000170   0.001513   0.431823  -0.027896   0.511293
    31  H    0.000514   0.000743  -0.009132   0.430940  -0.024951  -0.027882
              31
     1  C   -0.000000
     2  C    0.000000
     3  C    0.000000
     4  C   -0.000000
     5  C   -0.000001
     6  C    0.000007
     7  H    0.000000
     8  H   -0.000000
     9  H   -0.000000
    10  H    0.000000
    11  C   -0.047055
    12  C   -0.023591
    13  C    0.002663
    14  C   -0.000267
    15  C   -0.000066
    16  C    0.007974
    17  H   -0.000011
    18  H    0.000013
    19  H    0.000000
    20  C   -0.001133
    21  H   -0.000024
    22  H    0.000300
    23  H    0.000310
    24  C    0.003946
    25  H    0.000514
    26  H    0.000743
    27  H   -0.009132
    28  C    0.430940
    29  H   -0.024951
    30  H   -0.027882
    31  H    0.529047
 Mulliken charges:
               1
     1  C   -0.210604
     2  C   -0.151958
     3  C   -0.148130
     4  C   -0.152309
     5  C   -0.211431
     6  C    0.096460
     7  H    0.140173
     8  H    0.162197
     9  H    0.142512
    10  H    0.162708
    11  C    0.036449
    12  C    0.130174
    13  C   -0.275459
    14  C    0.129627
    15  C   -0.279177
    16  C    0.129336
    17  H    0.162571
    18  H    0.162337
    19  H    0.142470
    20  C   -0.532920
    21  H    0.142950
    22  H    0.164289
    23  H    0.167159
    24  C   -0.532567
    25  H    0.141858
    26  H    0.167639
    27  H    0.164340
    28  C   -0.544671
    29  H    0.157582
    30  H    0.178739
    31  H    0.157655
 Sum of Mulliken charges =  -0.00000
 Mulliken charges with hydrogens summed into heavy atoms:
               1
     1  C   -0.047896
     2  C   -0.009446
     3  C   -0.007957
     4  C   -0.009839
     5  C   -0.049234
     6  C    0.096460
    11  C    0.036449
    12  C    0.130174
    13  C   -0.112888
    14  C    0.129627
    15  C   -0.116840
    16  C    0.129336
    20  C   -0.058522
    24  C   -0.058730
    28  C   -0.050696
 Electronic spatial extent (au):  <R**2>=           4043.3003
 Charge=             -0.0000 electrons
 Dipole moment (field-independent basis, Debye):
    X=             -0.9151    Y=              0.0011    Z=              0.0116  Tot=              0.9151
 Quadrupole moment (field-independent basis, Debye-Ang):
   XX=            -80.4428   YY=            -83.4383   ZZ=            -94.1381
   XY=              0.0052   XZ=              0.0908   YZ=              2.4838
 Traceless Quadrupole moment (field-independent basis, Debye-Ang):
   XX=              5.5636   YY=              2.5681   ZZ=             -8.1317
   XY=              0.0052   XZ=              0.0908   YZ=              2.4838
 Octapole moment (field-independent basis, Debye-Ang**2):
  XXX=              8.2447  YYY=              0.0410  ZZZ=             -0.0236  XYY=             -0.7214
  XXY=             -0.0260  XXZ=             -0.3155  XZZ=             -7.9681  YZZ=             -0.0682
  YYZ=              0.1267  XYZ=             12.3744
 Hexadecapole moment (field-independent basis, Debye-Ang**3):
 XXXX=          -4052.0158 YYYY=          -1114.6069 ZZZZ=           -219.1070 XXXY=             -0.0786
 XXXZ=              0.4533 YYYX=              1.3300 YYYZ=             10.5381 ZZZX=             -0.5721
 ZZZY=              2.7960 XXYY=           -881.7614 XXZZ=           -774.7447 YYZZ=           -221.8870
 XXYZ=             43.5992 YYXZ=              3.0602 ZZXY=             -1.0525
 N-N= 8.971805445305D+02 E-N=-3.141040493408D+03  KE= 5.779602576318D+02
 ******************************Gaussian NBO Version 3.1******************************
             N A T U R A L   A T O M I C   O R B I T A L   A N D
          N A T U R A L   B O N D   O R B I T A L   A N A L Y S I S
 ******************************Gaussian NBO Version 3.1******************************
       /RESON  / : Allow strongly delocalized NBO set

 Analyzing the SCF density

 Job title: Structure697                                                    

 Storage needed:    947638 in NPA,   1261559 in NBO (1048570885 available)
 GSVD:  LWork=      111207 too small for GESVD, short by      292968 words or      292968 for optimal perf.


 NATURAL POPULATIONS:  Natural atomic orbital occupancies 
                                                          
   NAO  Atom  No  lang   Type(AO)    Occupancy      Energy
 ----------------------------------------------------------
     1    C    1  S      Cor( 1S)     1.99916     -10.37734
     2    C    1  S      Val( 2S)     0.96955      -0.22320
     3    C    1  S      Ryd( 4S)     0.00092       1.44470
     4    C    1  S      Ryd( 3S)     0.00011       1.42765
     5    C    1  S      Ryd( 5S)     0.00001      21.32649
     6    C    1  px     Val( 2p)     1.07896      -0.06276
     7    C    1  px     Ryd( 3p)     0.00308       1.17888
     8    C    1  px     Ryd( 4p)     0.00016       2.41100
     9    C    1  py     Val( 2p)     1.09663      -0.07524
    10    C    1  py     Ryd( 3p)     0.00348       0.99606
    11    C    1  py     Ryd( 4p)     0.00025       2.32533
    12    C    1  pz     Val( 2p)     1.03626      -0.09831
    13    C    1  pz     Ryd( 3p)     0.00203       0.79538
    14    C    1  pz     Ryd( 4p)     0.00031       1.77260
    15    C    1  dxy    Ryd( 3d)     0.00141       1.72824
    16    C    1  dxy    Ryd( 4d)     0.00061       3.43854
    17    C    1  dxz    Ryd( 3d)     0.00059       1.53220
    18    C    1  dxz    Ryd( 4d)     0.00034       3.17604
    19    C    1  dyz    Ryd( 3d)     0.00085       1.58130
    20    C    1  dyz    Ryd( 4d)     0.00016       3.26929
    21    C    1  dx2y2  Ryd( 3d)     0.00139       1.73496
    22    C    1  dx2y2  Ryd( 4d)     0.00035       3.40120
    23    C    1  dz2    Ryd( 3d)     0.00069       1.48337
    24    C    1  dz2    Ryd( 4d)     0.00007       3.14532
    25    C    1  f(0)   Ryd( 4f)     0.00021       3.55422
    26    C    1  f(C1)  Ryd( 4f)     0.00010       3.56549
    27    C    1  f(S1)  Ryd( 4f)     0.00020       3.34740
    28    C    1  f(C2)  Ryd( 4f)     0.00012       3.63024
    29    C    1  f(S2)  Ryd( 4f)     0.00011       3.74923
    30    C    1  f(C3)  Ryd( 4f)     0.00011       4.05757
    31    C    1  f(S3)  Ryd( 4f)     0.00006       3.86429
 
    32    C    2  S      Cor( 1S)     1.99924     -10.37881
    33    C    2  S      Val( 2S)     0.97537      -0.23044
    34    C    2  S      Ryd( 3S)     0.00085       1.17018
    35    C    2  S      Ryd( 4S)     0.00009       1.31518
    36    C    2  S      Ryd( 5S)     0.00000      21.63304
    37    C    2  px     Val( 2p)     1.07739      -0.06085
    38    C    2  px     Ryd( 3p)     0.00386       1.05475
    39    C    2  px     Ryd( 4p)     0.00026       2.20042
    40    C    2  py     Val( 2p)     1.10259      -0.07841
    41    C    2  py     Ryd( 3p)     0.00367       1.04695
    42    C    2  py     Ryd( 4p)     0.00020       1.92835
    43    C    2  pz     Val( 2p)     1.03281      -0.10035
    44    C    2  pz     Ryd( 3p)     0.00220       0.82832
    45    C    2  pz     Ryd( 4p)     0.00030       1.56210
    46    C    2  dxy    Ryd( 3d)     0.00099       1.77774
    47    C    2  dxy    Ryd( 4d)     0.00057       3.41522
    48    C    2  dxz    Ryd( 3d)     0.00045       1.53017
    49    C    2  dxz    Ryd( 4d)     0.00033       3.12486
    50    C    2  dyz    Ryd( 3d)     0.00086       1.54915
    51    C    2  dyz    Ryd( 4d)     0.00022       3.21812
    52    C    2  dx2y2  Ryd( 3d)     0.00155       1.65459
    53    C    2  dx2y2  Ryd( 4d)     0.00044       3.34809
    54    C    2  dz2    Ryd( 3d)     0.00050       1.45089
    55    C    2  dz2    Ryd( 4d)     0.00010       3.09450
    56    C    2  f(0)   Ryd( 4f)     0.00020       3.50589
    57    C    2  f(C1)  Ryd( 4f)     0.00009       3.56033
    58    C    2  f(S1)  Ryd( 4f)     0.00014       3.31565
    59    C    2  f(C2)  Ryd( 4f)     0.00011       3.63009
    60    C    2  f(S2)  Ryd( 4f)     0.00009       3.71071
    61    C    2  f(C3)  Ryd( 4f)     0.00006       4.04017
    62    C    2  f(S3)  Ryd( 4f)     0.00006       3.80889
 
    63    C    3  S      Cor( 1S)     1.99924     -10.37725
    64    C    3  S      Val( 2S)     0.97579      -0.23075
    65    C    3  S      Ryd( 3S)     0.00087       1.18371
    66    C    3  S      Ryd( 4S)     0.00009       1.32793
    67    C    3  S      Ryd( 5S)     0.00000      21.62877
    68    C    3  px     Val( 2p)     1.16943      -0.06721
    69    C    3  px     Ryd( 3p)     0.00458       1.19483
    70    C    3  px     Ryd( 4p)     0.00016       2.10256
    71    C    3  py     Val( 2p)     1.03804      -0.07305
    72    C    3  py     Ryd( 3p)     0.00319       0.92574
    73    C    3  py     Ryd( 4p)     0.00034       2.04040
    74    C    3  pz     Val( 2p)     1.01460      -0.09891
    75    C    3  pz     Ryd( 3p)     0.00222       0.77054
    76    C    3  pz     Ryd( 4p)     0.00038       1.58828
    77    C    3  dxy    Ryd( 3d)     0.00149       1.64582
    78    C    3  dxy    Ryd( 4d)     0.00042       3.19275
    79    C    3  dxz    Ryd( 3d)     0.00072       1.45074
    80    C    3  dxz    Ryd( 4d)     0.00019       2.93368
    81    C    3  dyz    Ryd( 3d)     0.00076       1.69023
    82    C    3  dyz    Ryd( 4d)     0.00014       3.34273
    83    C    3  dx2y2  Ryd( 3d)     0.00077       1.87940
    84    C    3  dx2y2  Ryd( 4d)     0.00066       3.39477
    85    C    3  dz2    Ryd( 3d)     0.00034       1.55017
    86    C    3  dz2    Ryd( 4d)     0.00023       3.07890
    87    C    3  f(0)   Ryd( 4f)     0.00010       3.49609
    88    C    3  f(C1)  Ryd( 4f)     0.00011       3.49803
    89    C    3  f(S1)  Ryd( 4f)     0.00018       3.46345
    90    C    3  f(C2)  Ryd( 4f)     0.00011       3.53332
    91    C    3  f(S2)  Ryd( 4f)     0.00016       3.79622
    92    C    3  f(C3)  Ryd( 4f)     0.00005       3.99962
    93    C    3  f(S3)  Ryd( 4f)     0.00005       3.74075
 
    94    C    4  S      Cor( 1S)     1.99924     -10.37883
    95    C    4  S      Val( 2S)     0.97539      -0.23046
    96    C    4  S      Ryd( 3S)     0.00085       1.16991
    97    C    4  S      Ryd( 4S)     0.00009       1.31439
    98    C    4  S      Ryd( 5S)     0.00000      21.63551
    99    C    4  px     Val( 2p)     1.07739      -0.06086
   100    C    4  px     Ryd( 3p)     0.00386       1.05473
   101    C    4  px     Ryd( 4p)     0.00026       2.20072
   102    C    4  py     Val( 2p)     1.10254      -0.07840
   103    C    4  py     Ryd( 3p)     0.00367       1.04678
   104    C    4  py     Ryd( 4p)     0.00020       1.92861
   105    C    4  pz     Val( 2p)     1.03283      -0.10036
   106    C    4  pz     Ryd( 3p)     0.00220       0.82822
   107    C    4  pz     Ryd( 4p)     0.00030       1.56222
   108    C    4  dxy    Ryd( 3d)     0.00099       1.77796
   109    C    4  dxy    Ryd( 4d)     0.00057       3.41494
   110    C    4  dxz    Ryd( 3d)     0.00045       1.53043
   111    C    4  dxz    Ryd( 4d)     0.00033       3.12457
   112    C    4  dyz    Ryd( 3d)     0.00086       1.54948
   113    C    4  dyz    Ryd( 4d)     0.00022       3.21790
   114    C    4  dx2y2  Ryd( 3d)     0.00155       1.65479
   115    C    4  dx2y2  Ryd( 4d)     0.00044       3.34772
   116    C    4  dz2    Ryd( 3d)     0.00050       1.45117
   117    C    4  dz2    Ryd( 4d)     0.00010       3.09417
   118    C    4  f(0)   Ryd( 4f)     0.00020       3.50584
   119    C    4  f(C1)  Ryd( 4f)     0.00009       3.56021
   120    C    4  f(S1)  Ryd( 4f)     0.00014       3.31571
   121    C    4  f(C2)  Ryd( 4f)     0.00011       3.63006
   122    C    4  f(S2)  Ryd( 4f)     0.00009       3.71063
   123    C    4  f(C3)  Ryd( 4f)     0.00006       4.04003
   124    C    4  f(S3)  Ryd( 4f)     0.00006       3.80885
 
   125    C    5  S      Cor( 1S)     1.99916     -10.37736
   126    C    5  S      Val( 2S)     0.96952      -0.22321
   127    C    5  S      Ryd( 4S)     0.00092       1.44590
   128    C    5  S      Ryd( 3S)     0.00011       1.42297
   129    C    5  S      Ryd( 5S)     0.00001      21.32934
   130    C    5  px     Val( 2p)     1.07892      -0.06279
   131    C    5  px     Ryd( 3p)     0.00308       1.17866
   132    C    5  px     Ryd( 4p)     0.00016       2.41042
   133    C    5  py     Val( 2p)     1.09664      -0.07525
   134    C    5  py     Ryd( 3p)     0.00348       0.99606
   135    C    5  py     Ryd( 4p)     0.00025       2.32463
   136    C    5  pz     Val( 2p)     1.03633      -0.09832
   137    C    5  pz     Ryd( 3p)     0.00203       0.79528
   138    C    5  pz     Ryd( 4p)     0.00031       1.77198
   139    C    5  dxy    Ryd( 3d)     0.00141       1.72808
   140    C    5  dxy    Ryd( 4d)     0.00061       3.43807
   141    C    5  dxz    Ryd( 3d)     0.00059       1.53241
   142    C    5  dxz    Ryd( 4d)     0.00034       3.17578
   143    C    5  dyz    Ryd( 3d)     0.00086       1.58155
   144    C    5  dyz    Ryd( 4d)     0.00016       3.26911
   145    C    5  dx2y2  Ryd( 3d)     0.00139       1.73553
   146    C    5  dx2y2  Ryd( 4d)     0.00035       3.40103
   147    C    5  dz2    Ryd( 3d)     0.00069       1.48362
   148    C    5  dz2    Ryd( 4d)     0.00007       3.14496
   149    C    5  f(0)   Ryd( 4f)     0.00021       3.55410
   150    C    5  f(C1)  Ryd( 4f)     0.00010       3.56555
   151    C    5  f(S1)  Ryd( 4f)     0.00020       3.34724
   152    C    5  f(C2)  Ryd( 4f)     0.00012       3.63027
   153    C    5  f(S2)  Ryd( 4f)     0.00011       3.74947
   154    C    5  f(C3)  Ryd( 4f)     0.00011       4.05740
   155    C    5  f(S3)  Ryd( 4f)     0.00006       3.86400
 
   156    C    6  S      Cor( 1S)     1.99911     -10.38680
   157    C    6  S      Val( 2S)     0.91094      -0.19625
   158    C    6  S      Ryd( 4S)     0.00076       1.59893
   159    C    6  S      Ryd( 3S)     0.00009       1.50885
   160    C    6  S      Ryd( 5S)     0.00000      21.33848
   161    C    6  px     Val( 2p)     1.04302      -0.04990
   162    C    6  px     Ryd( 3p)     0.00635       1.23948
   163    C    6  px     Ryd( 4p)     0.00049       1.89962
   164    C    6  py     Val( 2p)     1.05415      -0.07444
   165    C    6  py     Ryd( 3p)     0.00420       1.08500
   166    C    6  py     Ryd( 4p)     0.00036       1.48308
   167    C    6  pz     Val( 2p)     1.01725      -0.09538
   168    C    6  pz     Ryd( 3p)     0.00158       0.85242
   169    C    6  pz     Ryd( 4p)     0.00020       1.38093
   170    C    6  dxy    Ryd( 3d)     0.00136       2.15865
   171    C    6  dxy    Ryd( 4d)     0.00040       3.47192
   172    C    6  dxz    Ryd( 3d)     0.00054       1.48425
   173    C    6  dxz    Ryd( 4d)     0.00028       3.40096
   174    C    6  dyz    Ryd( 3d)     0.00041       1.74017
   175    C    6  dyz    Ryd( 4d)     0.00026       3.42623
   176    C    6  dx2y2  Ryd( 3d)     0.00105       2.28224
   177    C    6  dx2y2  Ryd( 4d)     0.00051       3.52840
   178    C    6  dz2    Ryd( 3d)     0.00029       1.57894
   179    C    6  dz2    Ryd( 4d)     0.00034       3.56602
   180    C    6  f(0)   Ryd( 4f)     0.00006       3.69338
   181    C    6  f(C1)  Ryd( 4f)     0.00007       3.75888
   182    C    6  f(S1)  Ryd( 4f)     0.00009       3.49702
   183    C    6  f(C2)  Ryd( 4f)     0.00007       3.78241
   184    C    6  f(S2)  Ryd( 4f)     0.00005       3.93418
   185    C    6  f(C3)  Ryd( 4f)     0.00009       4.14837
   186    C    6  f(S3)  Ryd( 4f)     0.00002       4.18767
 
   187    H    7  S      Val( 1S)     0.78787       0.05464
   188    H    7  S      Ryd( 2S)     0.00032       1.01151
   189    H    7  S      Ryd( 3S)     0.00018       1.78040
   190    H    7  px     Ryd( 2p)     0.00042       3.03086
   191    H    7  py     Ryd( 2p)     0.00005       2.63335
   192    H    7  pz     Ryd( 2p)     0.00006       2.34273
 
   193    H    8  S      Val( 1S)     0.78529       0.05562
   194    H    8  S      Ryd( 3S)     0.00043       1.55194
   195    H    8  S      Ryd( 2S)     0.00014       1.40978
   196    H    8  px     Ryd( 2p)     0.00018       2.87420
   197    H    8  py     Ryd( 2p)     0.00027       2.79183
   198    H    8  pz     Ryd( 2p)     0.00015       2.43242
 
   199    H    9  S      Val( 1S)     0.78591       0.05389
   200    H    9  S      Ryd( 2S)     0.00032       1.10065
   201    H    9  S      Ryd( 3S)     0.00019       1.68692
   202    H    9  px     Ryd( 2p)     0.00014       2.85527
   203    H    9  py     Ryd( 2p)     0.00025       2.76726
   204    H    9  pz     Ryd( 2p)     0.00013       2.39289
 
   205    H   10  S      Val( 1S)     0.78514       0.05578
   206    H   10  S      Ryd( 3S)     0.00043       1.55228
   207    H   10  S      Ryd( 2S)     0.00014       1.40832
   208    H   10  px     Ryd( 2p)     0.00018       2.87431
   209    H   10  py     Ryd( 2p)     0.00027       2.79239
   210    H   10  pz     Ryd( 2p)     0.00015       2.43274
 
   211    C   11  S      Cor( 1S)     1.99899     -10.38351
   212    C   11  S      Val( 2S)     0.91266      -0.19857
   213    C   11  S      Ryd( 4S)     0.00036       1.56999
   214    C   11  S      Ryd( 3S)     0.00007       1.50107
   215    C   11  S      Ryd( 5S)     0.00000      21.47345
   216    C   11  px     Val( 2p)     1.02694      -0.05395
   217    C   11  px     Ryd( 3p)     0.00344       1.44351
   218    C   11  px     Ryd( 4p)     0.00047       1.56128
   219    C   11  py     Val( 2p)     1.06316      -0.05410
   220    C   11  py     Ryd( 3p)     0.00255       1.14013
   221    C   11  py     Ryd( 4p)     0.00034       1.71122
   222    C   11  pz     Val( 2p)     1.00558      -0.10028
   223    C   11  pz     Ryd( 3p)     0.00179       0.84475
   224    C   11  pz     Ryd( 4p)     0.00016       1.27966
   225    C   11  dxy    Ryd( 3d)     0.00104       1.91472
   226    C   11  dxy    Ryd( 4d)     0.00067       3.43387
   227    C   11  dxz    Ryd( 3d)     0.00046       1.10307
   228    C   11  dxz    Ryd( 4d)     0.00031       3.23946
   229    C   11  dyz    Ryd( 3d)     0.00012       1.26136
   230    C   11  dyz    Ryd( 4d)     0.00027       3.26431
   231    C   11  dx2y2  Ryd( 3d)     0.00098       2.28957
   232    C   11  dx2y2  Ryd( 4d)     0.00054       3.50657
   233    C   11  dz2    Ryd( 3d)     0.00020       1.70882
   234    C   11  dz2    Ryd( 4d)     0.00019       3.48922
   235    C   11  f(0)   Ryd( 4f)     0.00017       3.44264
   236    C   11  f(C1)  Ryd( 4f)     0.00010       3.54366
   237    C   11  f(S1)  Ryd( 4f)     0.00008       3.70656
   238    C   11  f(C2)  Ryd( 4f)     0.00002       3.48997
   239    C   11  f(S2)  Ryd( 4f)     0.00002       3.54634
   240    C   11  f(C3)  Ryd( 4f)     0.00006       4.38835
   241    C   11  f(S3)  Ryd( 4f)     0.00003       4.24624
 
   242    C   12  S      Cor( 1S)     1.99909     -10.38469
   243    C   12  S      Val( 2S)     0.91489      -0.20236
   244    C   12  S      Ryd( 4S)     0.00057       1.54319
   245    C   12  S      Ryd( 3S)     0.00011       1.49530
   246    C   12  S      Ryd( 5S)     0.00000      21.31152
   247    C   12  px     Val( 2p)     1.05374      -0.05293
   248    C   12  px     Ryd( 3p)     0.00337       1.17494
   249    C   12  px     Ryd( 4p)     0.00013       2.59796
   250    C   12  py     Val( 2p)     1.03281      -0.05185
   251    C   12  py     Ryd( 3p)     0.00357       1.27805
   252    C   12  py     Ryd( 4p)     0.00009       2.53276
   253    C   12  pz     Val( 2p)     0.98449      -0.09830
   254    C   12  pz     Ryd( 3p)     0.00175       0.69677
   255    C   12  pz     Ryd( 4p)     0.00040       1.56257
   256    C   12  dxy    Ryd( 3d)     0.00113       2.05913
   257    C   12  dxy    Ryd( 4d)     0.00080       3.53520
   258    C   12  dxz    Ryd( 3d)     0.00043       1.55750
   259    C   12  dxz    Ryd( 4d)     0.00018       2.88847
   260    C   12  dyz    Ryd( 3d)     0.00036       1.57252
   261    C   12  dyz    Ryd( 4d)     0.00043       2.89594
   262    C   12  dx2y2  Ryd( 3d)     0.00142       1.96434
   263    C   12  dx2y2  Ryd( 4d)     0.00073       3.50528
   264    C   12  dz2    Ryd( 3d)     0.00060       1.83631
   265    C   12  dz2    Ryd( 4d)     0.00007       3.36960
   266    C   12  f(0)   Ryd( 4f)     0.00029       3.39949
   267    C   12  f(C1)  Ryd( 4f)     0.00015       3.66586
   268    C   12  f(S1)  Ryd( 4f)     0.00020       3.51257
   269    C   12  f(C2)  Ryd( 4f)     0.00003       3.53914
   270    C   12  f(S2)  Ryd( 4f)     0.00002       3.50247
   271    C   12  f(C3)  Ryd( 4f)     0.00011       4.32934
   272    C   12  f(S3)  Ryd( 4f)     0.00004       4.28060
 
   273    C   13  S      Cor( 1S)     1.99907     -10.36705
   274    C   13  S      Val( 2S)     0.95792      -0.20641
   275    C   13  S      Ryd( 4S)     0.00066       1.56601
   276    C   13  S      Ryd( 3S)     0.00021       1.38261
[...]
 005970,0.00000726,0.00000838,0.00000642,0.00013772,0.00030753,-0.00000
 962,0.00000764,0.00004328,-0.00010139,-0.00001148,-0.00002082,0.000021
 36,0.00000098,-0.00001883,0.00002180,-0.06332788,-0.02663463,-0.302904
 99,0.06958444,0.02873203,0.32818923,-0.00001800,-0.00003985,-0.0000329
 9,0.00000513,-0.00000626,0.00000221,-0.00000338,-0.00001429,-0.0000085
 5,0.00000630,-0.00000414,0.00000973,-0.00001848,0.00000977,-0.00001947
 ,0.00006562,-0.00000628,0.00009864,-0.00000165,-0.00000589,-0.00000237
 ,0.00001536,0.00000420,0.00001100,-0.00000093,-0.00000964,-0.00000106,
 -0.00000446,0.00000891,0.00000263,0.00055229,-0.00103943,-0.00156473,-
 0.00304882,-0.00335551,0.00087589,-0.00005603,0.00028636,0.00103112,0.
 00009608,-0.00026450,0.00016969,-0.00005722,0.00005213,-0.00003937,-0.
 00013555,-0.00017298,0.00014978,-0.00015610,0.00010215,0.00011925,0.00
 001318,-0.00000011,0.00002924,-0.00000449,-0.00000049,-0.00000343,-0.0
 0000008,0.00001743,-0.00001146,-0.00000643,0.00001879,0.00002182,-0.00
 003361,-0.00000158,0.00004314,0.00003383,-0.00001799,0.00002989,-0.296
 87698,-0.05731710,-0.01712610,-0.00616524,-0.00062574,-0.00024916,0.32
 238460,-0.00003622,-0.00009659,-0.00005539,0.00001935,-0.00000780,-0.0
 0001750,-0.00000856,-0.00002593,-0.00001846,0.00001110,-0.00000416,-0.
 00000390,-0.00003073,-0.00002375,-0.00003946,0.00001543,-0.00000705,0.
 00023207,-0.00000696,-0.00000719,-0.00000077,0.00000971,-0.00001103,0.
 00001895,-0.00000258,-0.00001607,-0.00000251,-0.00002722,0.00001566,0.
 00000917,0.00024127,-0.00014045,-0.00153842,-0.02795509,-0.00918990,-0
 .00145537,-0.00011299,-0.00180227,0.00236080,0.00128697,-0.00101323,-0
 .00028582,-0.00014987,-0.00015663,0.00016363,0.00068241,-0.00072150,-0
 .00028648,-0.00073961,0.00015014,0.00004860,-0.00012194,0.00004098,0.0
 0004117,-0.00000991,-0.00000730,-0.00000838,-0.00001648,0.00003238,-0.
 00004311,-0.00001939,0.00000815,-0.00001520,-0.00000005,0.00001917,0.0
 0003652,0.00001252,0.00001289,0.00002875,-0.05961115,-0.05552395,-0.00
 382451,-0.00334322,-0.00174756,-0.00014763,0.06515465,0.06329704,0.000
 01204,0.00004185,0.00000947,-0.00000232,-0.00000722,0.00000674,0.00000
 423,0.00000314,0.00000251,0.00000976,-0.00000645,0.00000281,-0.0000096
 6,0.00002557,0.00000049,-0.00003264,0.00000075,-0.00009570,0.00000134,
 0.,0.00000289,0.00000486,0.00001023,-0.00000137,-0.00000050,0.00000327
 ,0.00000219,0.00001358,-0.00001615,0.00000496,-0.00031316,0.00096646,-
 0.00070991,0.01646152,0.00227322,0.00124529,-0.00004779,-0.00014637,-0
 .00075084,-0.00027130,0.00036896,-0.00015783,0.00026242,0.00047826,0.0
 0018369,-0.00098658,-0.00023996,0.00038068,-0.00006835,0.00013373,0.00
 023552,0.00001600,-0.00003535,0.00001149,0.00000231,0.00000492,0.00000
 426,0.00001365,-0.00003814,0.00005020,-0.00000089,-0.00002355,0.000013
 88,0.00002063,-0.00000537,-0.00002587,-0.00002344,0.00001316,-0.000009
 69,-0.01607249,-0.00249764,-0.04718231,-0.03081643,-0.00633081,-0.0004
 8539,0.01843803,0.00220007,0.04859059,-0.00000382,-0.00001468,-0.00002
 820,0.00000708,-0.00000342,0.00000633,-0.00000056,-0.00000449,-0.00000
 388,-0.00000503,0.00000714,-0.00000281,0.00000921,-0.00001616,0.000000
 02,0.00001408,-0.00003552,0.00006737,0.00000016,0.00000124,0.00000009,
 0.00000162,0.00000206,-0.00000548,-0.00000258,-0.00000242,-0.00000046,
 0.00000196,-0.00000107,0.00000410,0.00093189,0.00053872,0.00006446,0.0
 0434776,-0.00779036,-0.00401798,-0.00044495,-0.00108713,0.00049585,-0.
 00073981,-0.00022755,0.00001624,-0.00000856,-0.00000372,-0.00007998,-0
 .00031052,0.00002042,-0.00006736,0.00031578,-0.00013110,0.00006078,0.0
 0007005,-0.00003822,-0.00000346,-0.00000122,-0.00000244,-0.00000135,0.
 00000585,-0.00000496,0.00000646,-0.00000813,-0.00001483,-0.00001585,0.
 00002937,0.00000899,-0.00001555,-0.00002580,0.00001842,-0.00000819,-0.
 11600393,0.10757096,0.05240535,0.00431592,-0.00782554,-0.00282146,-0.0
 1692974,0.02474141,0.01269942,0.12470616,-0.00002511,-0.00006659,-0.00
 008044,0.00001999,0.00000105,0.00000662,-0.00001294,-0.00003085,-0.000
 02228,-0.00000220,0.00000757,0.00000694,-0.00000381,-0.00005211,-0.000
 02176,-0.00000455,-0.00002243,0.00029695,-0.00000197,-0.00000650,-0.00
 000582,0.00002946,0.00000692,0.00001201,-0.00000316,-0.00001667,-0.000
 00394,-0.00000379,0.00002291,0.00000795,-0.00104084,0.00034823,-0.0017
 4252,0.01222442,-0.02276237,-0.00970794,-0.00002059,-0.00214270,0.0029
 2830,-0.00144582,-0.00024564,-0.00017717,0.00014109,-0.00016627,0.0001
 2020,-0.00084686,-0.00018858,-0.00004718,0.00060438,-0.00015472,0.0000
 4399,0.00008497,-0.00001949,0.00004198,-0.00000875,-0.00000907,-0.0000
 1317,0.00005398,0.00003180,-0.00004232,0.00003246,0.00000254,-0.000005
 07,-0.00001796,0.00000937,0.00005272,0.00003191,-0.00000849,0.00005271
 ,0.10839670,-0.20154891,-0.07832058,0.00080709,-0.00200906,-0.00076877
 ,-0.00362547,0.00581971,0.00297309,-0.11579328,0.22215371,-0.00001208,
 0.00002591,0.00001705,-0.00001179,-0.00000889,-0.00000561,0.00000831,0
 .00000384,0.00001030,0.00000490,0.00000634,0.00000432,-0.00002489,-0.0
 0000867,0.00002092,0.00003265,0.00003492,-0.00010628,0.00000093,0.0000
 0104,0.00000219,0.00000966,-0.00000950,-0.00001333,0.00000211,0.000003
 73,-0.00000010,0.00000452,-0.00001663,-0.00000463,0.00026479,0.0009406
 7,-0.00070411,-0.01026869,0.01290874,0.00758029,0.00008710,0.00037659,
 -0.00122254,0.00056318,0.00021068,-0.00008057,0.00007001,0.00063575,0.
 00027345,0.00039484,-0.00095860,0.00037422,0.00013088,0.00016476,0.000
 31959,0.00001623,-0.00003880,0.00002170,0.00000464,0.00000123,-0.00000
 004,-0.00002227,-0.00003352,0.00004075,-0.00001176,-0.00002211,0.00001
 882,0.00002162,0.00000262,-0.00001882,-0.00002227,0.00001192,-0.000009
 05,0.05313458,-0.07740384,-0.08621783,0.01729538,-0.02302870,-0.010281
 19,-0.00169334,0.00218128,0.00001782,-0.05882440,0.08384461,0.09067027
 ,0.00012938,0.00029701,0.00020389,-0.00011943,-0.00011550,-0.00021659,
 0.00015809,-0.00007401,0.00018743,-0.00007152,0.00025986,0.00005944,-0
 .00006329,-0.00007118,-0.00012373,-0.00076616,-0.00006250,0.00002538,0
 .00001720,0.00000476,-0.00000902,0.00002739,0.00001682,-0.00006159,-0.
 00000923,0.00002136,0.00000988,-0.00001670,0.00002350,-0.00002788,-0.0
 8502270,-0.03847894,-0.02302277,0.00290103,-0.00392270,-0.00430394,0.0
 0636523,-0.00132831,-0.00190242,-0.00070377,0.00076359,0.00068127,0.00
 607361,-0.00326635,0.00047433,0.00189122,-0.00838184,-0.00342313,0.000
 00624,-0.00018310,0.00009822,-0.00004829,-0.00020901,-0.00029085,-0.00
 000232,0.00000666,0.00001778,-0.00473274,-0.00052555,0.00082293,-0.000
 08303,-0.00046296,-0.00054965,0.00084250,-0.00106105,0.00046304,-0.000
 31116,0.00070041,-0.00053661,-0.00454534,0.00110081,-0.00105145,-0.000
 13771,-0.00067425,-0.00016906,-0.00031075,-0.00011621,0.00092947,0.000
 97516,-0.00010241,-0.00110173,0.54333269,-0.00002901,-0.00024086,-0.00
 002911,0.00005280,0.00008732,0.00010929,-0.00007546,0.00001237,-0.0000
 8630,0.00001413,-0.00005967,-0.00003357,0.00003212,-0.00000307,-0.0000
 6808,0.00040895,0.00035907,0.00007194,-0.00000810,0.00000089,0.0000005
 2,-0.00003682,0.00000109,0.00000807,0.00000568,-0.00000680,-0.00000320
 ,-0.00002136,0.00001078,0.00000272,-0.03420731,-0.16840564,-0.05056334
 ,-0.00179280,0.00341922,-0.00774062,-0.00159450,0.00232455,0.00305398,
 -0.00012509,-0.00107338,-0.00025110,-0.00175464,-0.00054152,0.00387475
 ,-0.01061256,-0.02762022,-0.01265816,0.00022304,0.00044320,0.00041786,
 -0.00020501,-0.00059786,-0.00063110,-0.00000353,-0.00000388,-0.0000058
 4,0.00050569,-0.00199849,-0.00191559,-0.00002116,0.00004007,-0.0007766
 6,-0.00006058,0.00072041,0.00004075,-0.00017236,0.00026083,0.00041976,
 0.00063930,-0.00110938,0.00175330,-0.00022786,-0.00055460,0.00033708,0
 .00043176,0.00053828,0.00074477,0.00005579,0.00048337,0.00031906,-0.00
 049917,0.51675811,-0.00008248,-0.00005261,-0.00003011,0.00002498,-0.00
 002112,0.00003028,0.00000259,-0.00003202,-0.00001417,0.00003075,0.0000
 2282,0.00004714,-0.00007369,0.00002173,-0.00004452,0.00018056,-0.00000
 699,0.00021862,0.00000285,-0.00000390,0.00000397,0.00004824,-0.0000106
 2,0.00001182,0.00000211,-0.00000584,-0.00000392,0.00003502,-0.00003965
 ,0.00001525,-0.02055777,-0.05106264,-0.12315189,-0.01013914,-0.0280042
 1,-0.01885625,-0.00015999,0.00232355,-0.00444005,-0.00009087,-0.000030
 13,-0.00080713,-0.00012899,0.00429897,-0.00131714,0.00223474,0.0077888
 7,0.01325920,-0.00044515,-0.00114883,-0.00052027,0.00041538,0.00093910
 ,0.00054107,-0.00000005,0.00000330,0.00000002,0.00046468,0.00210524,-0
 .00079551,-0.00016229,0.00000276,-0.00040766,0.00017293,0.00011309,0.0
 0033264,0.00054027,0.00089138,-0.00003563,-0.00024907,-0.00235445,-0.0
 0196705,-0.00003532,-0.00052050,0.00023762,-0.00040764,0.00027044,-0.0
 0026625,-0.00005748,0.00014510,0.00043057,-0.00406113,-0.04755125,0.56
 605973,-0.00002744,-0.00002823,-0.00003950,-0.00002248,-0.00000240,0.0
 0000454,-0.00000434,-0.00003863,-0.00001126,0.00001838,0.00001571,0.00
 000882,-0.00002129,-0.00004434,-0.00002254,0.00004278,0.00007150,0.000
 09958,0.00000149,-0.00000260,-0.00000272,0.00000449,0.00000225,0.00000
 416,0.00000056,-0.00000942,-0.00000263,0.00001265,0.00000341,-0.000007
 28,-0.00452178,0.00305108,-0.00565213,-0.00028120,-0.00149493,-0.00020
 769,0.00044827,0.00022822,-0.00007893,-0.00011639,-0.00019182,-0.00002
 363,0.00005361,0.00016024,0.00004351,0.00077373,0.00016109,-0.00118608
 ,-0.00003649,-0.00007506,-0.00005702,-0.00002898,-0.00003820,0.0000109
 3,-0.00000390,-0.00000215,-0.00000544,0.00017527,0.00014814,0.00019482
 ,0.00007571,0.00036319,0.00025304,-0.00105174,-0.00051889,0.00050388,0
 .00040017,-0.00022090,0.00001002,-0.00025673,-0.00018860,0.00077656,0.
 00013990,0.00013916,0.00004493,0.00035090,0.00000667,-0.00001111,-0.00
 021016,0.00005560,0.00017921,-0.11158557,0.03346445,-0.11174834,0.1171
 3749,-0.00002404,0.00001026,-0.00003453,-0.00002672,-0.00001895,-0.000
 01363,0.00001097,-0.00003946,0.00000540,0.00001166,0.00003186,0.000015
 94,-0.00002564,-0.00004534,-0.00001533,-0.00001513,0.00001122,0.000093
 54,0.00000340,-0.00000127,-0.00000170,0.00001224,0.00000051,-0.0000014
 3,-0.00000187,-0.00000669,-0.00000185,0.00001133,-0.00000291,-0.000005
 70,-0.01353478,0.00879773,-0.02395660,-0.00157221,-0.00462674,-0.00143
 696,0.00079366,0.00025630,-0.00116424,-0.00014636,-0.00003329,0.000068
 75,0.00046321,0.00006949,-0.00030597,0.00030589,0.00085956,0.00000095,
 -0.00010211,-0.00030838,-0.00022532,0.00000736,0.00003898,0.00003210,-
 0.00000327,-0.00000211,-0.00000308,-0.00216273,-0.00145993,0.00051895,
 0.00023994,-0.00006983,-0.00027139,0.00013376,-0.00059675,0.00048281,0
 .00011419,-0.00129553,0.00098603,-0.00017522,-0.00041984,0.00068334,0.
 00001359,0.00029486,0.00003256,0.00023876,-0.00005331,-0.00003619,-0.0
 0027512,0.00028683,-0.00000986,0.03565782,-0.06574474,0.06322766,-0.03
 745973,0.07481009,-0.00001782,0.00000196,-0.00003508,-0.00001334,-0.00
 001410,-0.00001324,0.00000434,-0.00002661,0.00000035,0.00000771,0.0000
 0863,0.00001530,-0.00002292,-0.00002234,-0.00000764,-0.00001132,-0.000
 00701,0.00006192,0.00000055,-0.00000492,-0.00000298,0.00002174,0.00000
 064,0.00000743,-0.00000113,-0.00001015,-0.00000167,0.00000024,0.000007
 25,0.00000026,-0.00661315,0.00270759,-0.01482100,-0.00173009,-0.002306
 41,0.00006614,0.00026275,0.00011049,-0.00090626,-0.00002944,0.00008791
 ,0.00013720,0.00006446,-0.00019159,-0.00021221,0.00084375,0.00135907,-
 0.00088387,-0.00000914,-0.00026609,-0.00010393,-0.00003791,-0.00004861
 ,0.00007434,-0.00000317,-0.00000148,-0.00000477,0.00136474,0.00183064,
 -0.00000625,0.00024968,0.00027982,0.00032307,-0.00002776,0.00067897,-0
 .00001452,0.00010318,0.00029611,0.00019634,-0.00012365,-0.00023222,-0.
 00026519,-0.00007548,-0.00004441,-0.00006972,-0.00024090,-0.00000868,0
 .00005502,0.00015944,-0.00008022,0.00007539,-0.11236606,0.06134162,-0.
 23530652,0.12225919,-0.06711714,0.25700219,-0.00002272,-0.00005921,-0.
 00002926,0.00001153,0.00001567,0.00003030,-0.00001981,-0.00000677,-0.0
 0002625,0.00001263,-0.00001519,-0.00000711,-0.00000168,-0.00001535,-0.
 00001490,0.00010704,0.00008633,0.00005375,-0.00000181,0.00000021,0.000
 00141,-0.00000601,-0.00000124,0.00000382,0.00000046,-0.00000445,-0.000
 00168,0.00000246,-0.00000437,0.00000299,0.01175937,-0.00566939,-0.0024
 2328,-0.00006479,-0.00014088,-0.00094841,-0.00061251,0.00039214,0.0003
 7440,-0.00010528,-0.00029971,-0.00021641,-0.00061016,0.00054131,0.0001
 6139,-0.00025817,-0.00104710,0.00027061,0.00004188,0.00002071,-0.00002
 234,0.00004867,-0.00002026,0.00003319,-0.00000090,-0.00000182,-0.00000
 280,0.00039764,-0.00014583,-0.00044097,0.00009078,-0.00001164,-0.00005
 586,-0.00008797,0.00050528,0.00000364,-0.00009703,-0.00002679,0.000258
 01,0.00034306,-0.00036158,0.00006985,0.00011385,-0.00008519,0.00001902
 ,-0.00007158,0.00023300,-0.00021475,-0.00008823,0.00018089,0.00043916,
 -0.20794663,0.11240643,0.05469258,-0.01287116,0.00748323,0.00457537,0.
 22579343,-0.00004310,-0.00007025,-0.00010755,-0.00000100,0.00002779,0.
 00003821,-0.00004557,-0.00002456,-0.00006010,0.00003295,-0.00005991,-0
 .00001791,-0.00000593,-0.00007202,0.00004212,0.00012296,0.00005308,0.0
 0001838,-0.00000538,-0.00000634,-0.00000223,0.00000437,0.00000173,0.00
 001952,0.00000185,-0.00001842,-0.00000431,0.00000351,0.00001051,0.0000
 0421,0.01815180,-0.01740615,-0.00876649,-0.00047282,-0.00099352,0.0017
 3754,-0.00118243,-0.00038719,0.00013604,0.00018665,0.00001259,-0.00021
 611,-0.00133339,0.00022197,-0.00004117,-0.00078440,-0.00012559,-0.0017
 4736,-0.00003648,-0.00005437,-0.00009442,-0.00001264,-0.00013728,-0.00
 002240,-0.00000551,-0.00000805,-0.00001696,0.00074184,-0.00016488,-0.0
 0045582,-0.00018050,0.00012680,0.00010537,-0.00013251,-0.00016012,0.00
 051769,0.00005042,0.00021940,0.00006423,0.00060175,0.00042586,-0.00022
 803,0.00005024,0.00000578,-0.00001427,-0.00001094,0.00021883,-0.000302
 53,0.00018650,-0.00004059,-0.00037082,0.11689718,-0.12219925,-0.038000
 49,0.00719639,-0.00546381,-0.00235448,-0.12465164,0.13505860,-0.000023
 65,-0.00005640,-0.00006321,-0.00000407,0.00001995,0.00002825,-0.000029
 75,-0.00001190,-0.00003917,0.00001787,-0.00003819,-0.00001759,0.000004
 34,-0.00005119,0.00001873,0.00009460,0.00006805,0.00001656,-0.00000338
 ,-0.00000339,-0.00000188,-0.00000195,-0.00000059,0.00001192,0.00000021
 ,-0.00001073,-0.00000197,0.00000114,0.00001075,-0.00000148,0.01210747,
 -0.01071086,-0.00605414,-0.00081706,-0.00115790,-0.00030672,-0.0009294
 9,0.00034784,0.00008298,0.00007484,-0.00024753,0.00016906,-0.00065862,
 -0.00001879,-0.00048189,0.00013847,0.00113927,-0.00107046,0.00000765,-
 0.00005895,-0.00009611,-0.00003260,-0.00004002,-0.00000291,-0.00000470
 ,-0.00000671,-0.00001101,0.00024936,0.00001823,0.00081685,0.00015516,-
 0.00008243,-0.00003865,0.00022160,-0.00027886,-0.00009161,-0.00010093,
 -0.00030129,0.00036313,0.00049613,-0.00086216,0.00029511,-0.00021487,0
 .00017898,0.00005921,0.00004947,0.00007602,0.00033146,-0.00017137,0.00
 048254,-0.00021776,0.05740512,-0.03839881,-0.06250075,-0.02226417,0.01
 516575,0.00812856,-0.06060966,0.04547698,0.06603782,-0.00001145,-0.000
 03520,-0.00002474,-0.00002150,0.00000683,0.00000273,-0.00000620,-0.000
 03257,-0.00001393,0.00001475,0.00001403,-0.00000609,-0.00001262,-0.000
 06478,-0.00003106,0.00004701,0.00013136,0.00004725,-0.00000148,-0.0000
 0256,-0.00000218,-0.00000764,0.00000130,0.00000922,-0.00000078,-0.0000
 0752,-0.00000052,0.00000044,0.00001107,-0.00000682,-0.00512851,-0.0034
 8494,0.00433488,0.00068052,-0.00106441,0.00089417,0.00002260,0.0001164
 3,0.00010680,-0.00009583,-0.00010795,-0.00015647,0.00038346,-0.0000113
 3,0.00025814,-0.00030567,-0.00067941,-0.00123213,-0.00002708,-0.000002
 49,-0.00005167,-0.00001689,-0.00009183,-0.00005156,-0.00000687,-0.0000
 0508,-0.00000654,-0.00016184,0.00054630,-0.00050375,0.00012112,0.00007
 473,0.00009831,-0.00015049,0.00018846,-0.00007803,0.00030214,-0.000016
 96,0.00004599,0.00048733,0.00031737,0.00041566,0.00009935,0.00044381,0
 .00021716,0.00037622,-0.00010631,-0.00001786,-0.00094899,0.00029657,-0
 .00067149,-0.14624339,-0.09679285,0.08955170,0.01140426,0.01002391,-0.
 00859383,-0.01585636,-0.01532416,0.01484283,0.15506440,0.00001391,-0.0
 0000824,-0.00002272,-0.00001971,0.00000371,-0.00001728,0.00000020,-0.0
 0002758,-0.00000464,0.00000117,0.00001442,-0.00000621,-0.00000840,-0.0
 0006450,-0.00001757,-0.00002769,0.00008183,-0.00001352,-0.00000257,-0.
 00000347,-0.00000325,-0.00000185,0.00000469,0.00000565,-0.00000244,-0.
 00000804,0.00000089,-0.00001719,0.00002123,-0.00000106,-0.01502744,-0.
 01736529,0.01465131,0.00064611,0.00010098,0.00182537,0.00024377,-0.000
 37004,0.00003986,-0.00005669,0.00016098,0.00001040,0.00038995,-0.00113
 033,0.00077846,-0.00194923,-0.00217501,-0.00355397,-0.00000843,0.00006
 172,-0.00005358,-0.00004351,-0.00034584,-0.00024125,-0.00000717,-0.000
 00505,-0.00000596,-0.00014533,-0.00013895,-0.00035959,-0.00008153,-0.0
 0000213,0.00008780,0.00003731,0.00005948,0.00002711,-0.00012393,0.0000
 2267,-0.00006021,0.00015351,0.00060362,0.00076324,0.00032815,0.0001793
 3,0.00013635,0.00019327,0.00040245,-0.00055574,0.00012035,0.00031703,0
 .00023625,-0.09621475,-0.13530021,0.08669123,-0.00475121,-0.00527883,0
 .00402576,0.01070322,0.01100935,-0.01064765,0.10565816,0.14918003,-0.0
 0000279,-0.00001045,-0.00000298,-0.00002318,-0.00000117,-0.00000302,0.
 00000234,-0.00002224,0.00000047,0.00000683,0.00002091,-0.00000618,-0.0
 0000504,-0.00004215,-0.00002395,0.00000680,0.00009611,0.00002593,0.000
 00121,0.00000128,-0.00000089,-0.00001186,0.00000145,-0.00000153,-0.000
 00071,-0.00000172,-0.00000058,0.00000438,0.00000375,-0.00001009,-0.011
 83427,-0.00953869,0.01181626,0.00001917,0.00029047,0.00000093,0.000379
 35,-0.00008223,0.00025959,-0.00013031,-0.00008013,-0.00010369,0.000548
 62,-0.00047585,0.00052408,-0.00053331,-0.00262696,-0.00232782,0.000009
 86,0.00002488,0.00004645,-0.00009000,-0.00021999,-0.00008167,-0.000002
 51,-0.00000230,-0.00000168,-0.00002026,0.00060845,-0.00064511,0.000046
 18,0.00019350,0.00024176,-0.00036731,0.00014303,0.00023406,0.00036107,
 -0.00009489,0.00003266,-0.00231145,-0.00036141,-0.00231968,0.00007412,
 -0.00038335,0.00004454,0.00031902,0.00008411,-0.00146681,0.00013935,0.
 00002350,-0.00099582,0.09183943,0.08821728,-0.13072309,0.01692728,0.01
 328713,-0.01348866,0.00402419,0.00466318,-0.00536234,-0.09937619,-0.09
 371550,0.14433886\\-0.00000181,0.00001473,-0.00000749,0.00000285,0.000
 00564,0.00000016,-0.00000442,-0.00000283,-0.00000283,0.00000219,0.0000
 0008,0.00000601,0.00000451,0.00000435,0.00000643,-0.00000801,-0.000028
 98,-0.00000183,-0.00000003,-0.00000163,-0.00000109,-0.00000265,0.00000
 313,-0.00000179,0.00000295,-0.00000362,0.00000030,0.00000519,-0.000003
 75,0.00000250,-0.00002365,-0.00003059,0.00000357,-0.00001559,-0.000007
 97,0.00001779,0.00000106,-0.00000643,-0.00000169,0.00001225,0.00001817
 ,0.00001571,-0.00000273,-0.00000832,-0.00002290,-0.00000012,0.00003199
 ,-0.00002298,-0.00000250,0.00000019,-0.00000501,0.00000250,-0.00000408
 ,0.00000377,-0.00000417,0.00000055,-0.00000246,0.00003146,0.00000551,0
 .00003955,-0.00000471,-0.00000073,-0.00001429,0.00000236,-0.00000242,-
 0.00000439,-0.00000301,0.00000565,-0.00000797,0.00002390,0.00003411,-0
 .00001235,-0.00001176,-0.00001025,0.00000692,-0.00000889,-0.00000269,0
 .00000754,-0.00000102,-0.00000316,0.00000270,-0.00000345,0.00003708,0.
 00002805,-0.00000135,-0.00001646,-0.00000212,0.00000430,-0.00001682,-0
 .00001534,0.00000434,-0.00001046,-0.00001444\\\@
 The archive entry for this job was punched.


 READER, WHETHER YOU BE DILETTANTE OR PROFESSOR ... SHOW YOURSELF TO BE
 MORE HUMAN THAN CRITICAL, AND THEN YOUR PLEASURE WILL INCREASE.
                                           -- DOMENICO SCARLATTI (1738)
 Job cpu time:       1 days  9 hours  4 minutes 22.3 seconds.
 Elapsed time:       0 days  1 hours  3 minutes  0.2 seconds.
 File lengths (MBytes):  RWF=    705 Int=      0 D2E=      0 Chk=     26 Scr=      1
 Normal termination of Gaussian 16 at Wed Nov  8 10:37:12 2023.
