 Entering Gaussian System, Link 0=g16
 Input=ph_35pr_41_1_m062x.com
 Output=ph_35pr_41_1_m062x.log
 Initial command:
 /arc/software/Gaussian/g16.c01/l1.exe "/tmp/slurm/41695/Gau-236341.inp" -scrdir="/tmp/slurm/41695/"
 Entering Link 1 = /arc/software/Gaussian/g16.c01/l1.exe PID=    236342.
  
 Copyright (c) 1988-2019, Gaussian, Inc.  All Rights Reserved.
  
 This is part of the Gaussian(R) 16 program.  It is based on
 the Gaussian(R) 09 system (copyright 2009, Gaussian, Inc.),
 the Gaussian(R) 03 system (copyright 2003, Gaussian, Inc.),
 the Gaussian(R) 98 system (copyright 1998, Gaussian, Inc.),
 the Gaussian(R) 94 system (copyright 1995, Gaussian, Inc.),
 the Gaussian 92(TM) system (copyright 1992, Gaussian, Inc.),
 the Gaussian 90(TM) system (copyright 1990, Gaussian, Inc.),
 the Gaussian 88(TM) system (copyright 1988, Gaussian, Inc.),
 the Gaussian 86(TM) system (copyright 1986, Carnegie Mellon
 University), and the Gaussian 82(TM) system (copyright 1983,
 Carnegie Mellon University). Gaussian is a federally registered
 trademark of Gaussian, Inc.
  
 This software contains proprietary and confidential information,
 including trade secrets, belonging to Gaussian, Inc.
  
 This software is provided under written license and may be
 used, copied, transmitted, or stored only in accord with that
 written license.
  
 The following legend is applicable only to US Government
 contracts under FAR:
  
                    RESTRICTED RIGHTS LEGEND
  
 Use, reproduction and disclosure by the US Government is
 subject to restrictions as set forth in subparagraphs (a)
 and (c) of the Commercial Computer Software - Restricted
 Rights clause in FAR 52.227-19.
  
 Gaussian, Inc.
 340 Quinnipiac St., Bldg. 40, Wallingford CT 06492
  
  
 ---------------------------------------------------------------
 Warning -- This program may not be used in any manner that
 competes with the business of Gaussian, Inc. or will provide
 assistance to any competitor of Gaussian, Inc.  The licensee
 of this program is prohibited from giving any competitor of
 Gaussian, Inc. access to this program.  By using this program,
 the user acknowledges that Gaussian, Inc. is engaged in the
 business of creating and licensing software in the field of
 computational chemistry and represents and warrants to the
 licensee that it is not a competitor of Gaussian, Inc. and that
 it will not use this program in any manner prohibited above.
 ---------------------------------------------------------------
  

 Cite this work as:
 Gaussian 16, Revision C.01,
 M. J. Frisch, G. W. Trucks, H. B. Schlegel, G. E. Scuseria, 
 M. A. Robb, J. R. Cheeseman, G. Scalmani, V. Barone, 
 G. A. Petersson, H. Nakatsuji, X. Li, M. Caricato, A. V. Marenich, 
 J. Bloino, B. G. Janesko, R. Gomperts, B. Mennucci, H. P. Hratchian, 
 J. V. Ortiz, A. F. Izmaylov, J. L. Sonnenberg, D. Williams-Young, 
 F. Ding, F. Lipparini, F. Egidi, J. Goings, B. Peng, A. Petrone, 
 T. Henderson, D. Ranasinghe, V. G. Zakrzewski, J. Gao, N. Rega, 
 G. Zheng, W. Liang, M. Hada, M. Ehara, K. Toyota, R. Fukuda, 
 J. Hasegawa, M. Ishida, T. Nakajima, Y. Honda, O. Kitao, H. Nakai, 
 T. Vreven, K. Throssell, J. A. Montgomery, Jr., J. E. Peralta, 
 F. Ogliaro, M. J. Bearpark, J. J. Heyd, E. N. Brothers, K. N. Kudin, 
 V. N. Staroverov, T. A. Keith, R. Kobayashi, J. Normand, 
 K. Raghavachari, A. P. Rendell, J. C. Burant, S. S. Iyengar, 
 J. Tomasi, M. Cossi, J. M. Millam, M. Klene, C. Adamo, R. Cammi, 
 J. W. Ochterski, R. L. Martin, K. Morokuma, O. Farkas, 
 J. B. Foresman, and D. J. Fox, Gaussian, Inc., Wallingford CT, 2019.
 
 ******************************************
 Gaussian 16:  ES64L-G16RevC.01  3-Jul-2019
                14-Nov-2023 
 ******************************************
 %nprocshared=32
 Will use up to   32 processors via shared memory.
 %mem=8000MB
 %chk=ph_35pr_41_1_m062x.chk
 -----------------------------------------
 # opt freq=noraman m062x def2tzvp pop=nbo
 -----------------------------------------
 1/18=20,19=15,26=3,38=1/1,3;
 2/9=110,12=2,17=6,18=5,40=1/2;
 3/5=44,7=101,11=2,25=1,30=1,71=1,74=-55/1,2,3;
 4//1;
 5/5=2,38=5/2;
 6/7=2,8=2,9=2,10=2,28=1,40=1/1,7;
 7//1,2,3,16;
 1/18=20,19=15,26=3/3(2);
 2/9=110/2;
 99//99;
 2/9=110/2;
 3/5=44,7=101,11=2,25=1,30=1,71=1,74=-55/1,2,3;
 4/5=5,16=3,69=1/1;
 5/5=2,38=5/2;
 7//1,2,3,16;
 1/18=20,19=15,26=3/3(-5);
 2/9=110/2;
 6/7=2,8=2,9=2,10=2,19=2,28=1,40=1/1,7;
 99/9=1/99;
 ------------
 Structure697
 ------------
 Symbolic Z-matrix:
 Charge =  0 Multiplicity = 1
 C                    -4.6961   -1.1131    2.9968 
 C                    -3.3886   -0.8245    3.3802 
 C                    -2.3265   -1.4392    2.7229 
 C                    -2.5632   -2.338     1.6866 
 C                    -3.8727   -2.6219    1.3063 
 C                    -4.956    -2.0144    1.9555 
 H                    -1.3113   -1.2171    3.0192 
 H                    -4.0452   -3.331     0.5101 
 H                    -3.2005   -0.1248    4.1815 
 H                    -5.5121   -0.6202    3.5045 
 C                    -9.001    -2.8993    0.775 
 C                    -8.0013   -2.7972   -0.1938 
 C                    -6.6912   -2.5084    0.1972 
 C                    -6.3586   -2.3212    1.5462 
 C                    -7.3803   -2.4304    2.4999 
 C                    -8.6957   -2.716     2.1247 
 H                    -5.9264   -2.4128   -0.5591 
 H                    -7.1478   -2.3078    3.5473 
 H                    -1.7362   -2.8157    1.1815 
 H                    -10.0159  -3.1214    0.4789 
 C                    -8.3372   -2.9895   -1.6644 
 H                    -7.4852   -3.4513   -2.1664 
 H                    -9.1485   -3.7142   -1.7531 
 C                    -9.7845   -2.8354    3.1795 
 H                    -9.5699   -2.1396    3.9925 
 H                    -10.731   -2.4959    2.7551 
 C                    -8.7182   -1.6702   -2.3589 
 H                    -9.5709   -1.2202   -1.8473 
 H                    -7.898    -0.9562   -2.2635 
 C                    -9.9236   -4.2684    3.7228 
 H                    -10.1384  -4.9525    2.8998 
 H                    -8.971    -4.594     4.1448 
 C                    -9.0581   -1.8574   -3.8445 
 H                    -9.3233   -0.9059   -4.3068 
 H                    -8.2119   -2.2672   -4.3972 
 H                    -9.9031   -2.5342   -3.9766 
 C                    -11.0213  -4.3957    4.7888 
 H                    -11.0944  -5.4212    5.1528 
 H                    -10.817   -3.7555    5.6479 
 H                    -11.9975  -4.118     4.3894 
 

 GradGradGradGradGradGradGradGradGradGradGradGradGradGradGradGradGradGrad
 Berny optimization.
 Initialization pass.
                           ----------------------------
                           !    Initial Parameters    !
                           ! (Angstroms and Degrees)  !
 --------------------------                            --------------------------
 ! Name  Definition              Value          Derivative Info.                !
 --------------------------------------------------------------------------------
 ! R1    R(1,2)                  1.3928         estimate D2E/DX2                !
 ! R2    R(1,6)                  1.4015         estimate D2E/DX2                !
 ! R3    R(1,10)                 1.0801         estimate D2E/DX2                !
 ! R4    R(2,3)                  1.3921         estimate D2E/DX2                !
 ! R5    R(2,9)                  1.0803         estimate D2E/DX2                !
 ! R6    R(3,4)                  1.392          estimate D2E/DX2                !
 ! R7    R(3,7)                  1.0806         estimate D2E/DX2                !
 ! R8    R(4,5)                  1.3928         estimate D2E/DX2                !
 ! R9    R(4,19)                 1.0804         estimate D2E/DX2                !
 ! R10   R(5,6)                  1.4014         estimate D2E/DX2                !
 ! R11   R(5,8)                  1.0801         estimate D2E/DX2                !
 ! R12   R(6,14)                 1.493          estimate D2E/DX2                !
 ! R13   R(11,12)                1.3959         estimate D2E/DX2                !
 ! R14   R(11,16)                1.3959         estimate D2E/DX2                !
 ! R15   R(11,20)                1.0803         estimate D2E/DX2                !
 ! R16   R(12,13)                1.3974         estimate D2E/DX2                !
 ! R17   R(12,21)                1.5207         estimate D2E/DX2                !
 ! R18   R(13,14)                1.402          estimate D2E/DX2                !
 ! R19   R(13,17)                1.0798         estimate D2E/DX2                !
 ! R20   R(14,15)                1.4019         estimate D2E/DX2                !
 ! R21   R(15,16)                1.3974         estimate D2E/DX2                !
 ! R22   R(15,18)                1.0799         estimate D2E/DX2                !
 ! R23   R(16,24)                1.5206         estimate D2E/DX2                !
 ! R24   R(21,22)                1.0914         estimate D2E/DX2                !
 ! R25   R(21,23)                1.0915         estimate D2E/DX2                !
 ! R26   R(21,27)                1.5388         estimate D2E/DX2                !
 ! R27   R(24,25)                1.0914         estimate D2E/DX2                !
 ! R28   R(24,26)                1.0914         estimate D2E/DX2                !
 ! R29   R(24,30)                1.5388         estimate D2E/DX2                !
 ! R30   R(27,28)                1.0915         estimate D2E/DX2                !
 ! R31   R(27,29)                1.0916         estimate D2E/DX2                !
 ! R32   R(27,33)                1.5354         estimate D2E/DX2                !
 ! R33   R(30,31)                1.0915         estimate D2E/DX2                !
 ! R34   R(30,32)                1.0916         estimate D2E/DX2                !
 ! R35   R(30,37)                1.5354         estimate D2E/DX2                !
 ! R36   R(33,34)                1.0906         estimate D2E/DX2                !
 ! R37   R(33,35)                1.0906         estimate D2E/DX2                !
 ! R38   R(33,36)                1.0907         estimate D2E/DX2                !
 ! R39   R(37,38)                1.0906         estimate D2E/DX2                !
 ! R40   R(37,39)                1.0907         estimate D2E/DX2                !
 ! R41   R(37,40)                1.0907         estimate D2E/DX2                !
 ! A1    A(2,1,6)              120.7888         estimate D2E/DX2                !
 ! A2    A(2,1,10)             119.031          estimate D2E/DX2                !
 ! A3    A(6,1,10)             120.174          estimate D2E/DX2                !
 ! A4    A(1,2,3)              119.6538         estimate D2E/DX2                !
 ! A5    A(1,2,9)              120.1224         estimate D2E/DX2                !
 ! A6    A(3,2,9)              120.2235         estimate D2E/DX2                !
 ! A7    A(2,3,4)              120.4557         estimate D2E/DX2                !
 ! A8    A(2,3,7)              119.7711         estimate D2E/DX2                !
 ! A9    A(4,3,7)              119.7732         estimate D2E/DX2                !
 ! A10   A(3,4,5)              119.652          estimate D2E/DX2                !
 ! A11   A(3,4,19)             120.223          estimate D2E/DX2                !
 ! A12   A(5,4,19)             120.1248         estimate D2E/DX2                !
 ! A13   A(4,5,6)              120.7902         estimate D2E/DX2                !
 ! A14   A(4,5,8)              119.0294         estimate D2E/DX2                !
 ! A15   A(6,5,8)              120.1743         estimate D2E/DX2                !
 ! A16   A(1,6,5)              118.6595         estimate D2E/DX2                !
 ! A17   A(1,6,14)             120.6684         estimate D2E/DX2                !
 ! A18   A(5,6,14)             120.6721         estimate D2E/DX2                !
 ! A19   A(12,11,16)           120.3211         estimate D2E/DX2                !
 ! A20   A(12,11,20)           119.8443         estimate D2E/DX2                !
 ! A21   A(16,11,20)           119.8345         estimate D2E/DX2                !
 ! A22   A(11,12,13)           119.497          estimate D2E/DX2                !
 ! A23   A(11,12,21)           120.2485         estimate D2E/DX2                !
 ! A24   A(13,12,21)           120.2533         estimate D2E/DX2                !
 ! A25   A(12,13,14)           121.2829         estimate D2E/DX2                !
 ! A26   A(12,13,17)           119.1005         estimate D2E/DX2                !
 ! A27   A(14,13,17)           119.6092         estimate D2E/DX2                !
 ! A28   A(6,14,13)            120.9386         estimate D2E/DX2                !
 ! A29   A(6,14,15)            120.9431         estimate D2E/DX2                !
 ! A30   A(13,14,15)           118.1183         estimate D2E/DX2                !
 ! A31   A(14,15,16)           121.2857         estimate D2E/DX2                !
 ! A32   A(14,15,18)           119.6087         estimate D2E/DX2                !
 ! A33   A(16,15,18)           119.0983         estimate D2E/DX2                !
 ! A34   A(11,16,15)           119.4949         estimate D2E/DX2                !
 ! A35   A(11,16,24)           120.2511         estimate D2E/DX2                !
 ! A36   A(15,16,24)           120.2527         estimate D2E/DX2                !
 ! A37   A(12,21,22)           109.019          estimate D2E/DX2                !
 ! A38   A(12,21,23)           109.0714         estimate D2E/DX2                !
 ! A39   A(12,21,27)           112.5025         estimate D2E/DX2                !
 ! A40   A(22,21,23)           105.1855         estimate D2E/DX2                !
 ! A41   A(22,21,27)           110.3926         estimate D2E/DX2                !
 ! A42   A(23,21,27)           110.3977         estimate D2E/DX2                !
 ! A43   A(16,24,25)           109.0181         estimate D2E/DX2                !
 ! A44   A(16,24,26)           109.0736         estimate D2E/DX2                !
 ! A45   A(16,24,30)           112.5037         estimate D2E/DX2                !
 ! A46   A(25,24,26)           105.1807         estimate D2E/DX2                !
 ! A47   A(25,24,30)           110.393          estimate D2E/DX2                !
 ! A48   A(26,24,30)           110.3993         estimate D2E/DX2                !
 ! A49   A(21,27,28)           109.5937         estimate D2E/DX2                !
 ! A50   A(21,27,29)           109.5901         estimate D2E/DX2                !
 ! A51   A(21,27,33)           112.7646         estimate D2E/DX2                !
 ! A52   A(28,27,29)           106.0431         estimate D2E/DX2                !
 ! A53   A(28,27,33)           109.3192         estimate D2E/DX2                !
 ! A54   A(29,27,33)           109.307          estimate D2E/DX2                !
 ! A55   A(24,30,31)           109.5855         estimate D2E/DX2                !
 ! A56   A(24,30,32)           109.5954         estimate D2E/DX2                !
 ! A57   A(24,30,37)           112.7649         estimate D2E/DX2                !
 ! A58   A(31,30,32)           106.038          estimate D2E/DX2                !
 ! A59   A(31,30,37)           109.3186         estimate D2E/DX2                !
 ! A60   A(32,30,37)           109.3151         estimate D2E/DX2                !
 ! A61   A(27,33,34)           110.9527         estimate D2E/DX2                !
 ! A62   A(27,33,35)           111.3692         estimate D2E/DX2                !
 ! A63   A(27,33,36)           111.3678         estimate D2E/DX2                !
 ! A64   A(34,33,35)           107.5583         estimate D2E/DX2                !
 ! A65   A(34,33,36)           107.5571         estimate D2E/DX2                !
 ! A66   A(35,33,36)           107.8531         estimate D2E/DX2                !
 ! A67   A(30,37,38)           110.9522         estimate D2E/DX2                !
 ! A68   A(30,37,39)           111.3627         estimate D2E/DX2                !
 ! A69   A(30,37,40)           111.3786         estimate D2E/DX2                !
 ! A70   A(38,37,39)           107.5524         estimate D2E/DX2                !
 ! A71   A(38,37,40)           107.5555         estimate D2E/DX2                !
 ! A72   A(39,37,40)           107.8564         estimate D2E/DX2                !
 ! D1    D(6,1,2,3)             -0.0715         estimate D2E/DX2                !
 ! D2    D(6,1,2,9)            179.7366         estimate D2E/DX2                !
 ! D3    D(10,1,2,3)          -179.167          estimate D2E/DX2                !
 ! D4    D(10,1,2,9)             0.6411         estimate D2E/DX2                !
 ! D5    D(2,1,6,5)              0.0397         estimate D2E/DX2                !
 ! D6    D(2,1,6,14)          -179.9646         estimate D2E/DX2                !
 ! D7    D(10,1,6,5)           179.1249         estimate D2E/DX2                !
 ! D8    D(10,1,6,14)           -0.8794         estimate D2E/DX2                !
 ! D9    D(1,2,3,4)              0.0344         estimate D2E/DX2                !
 ! D10   D(1,2,3,7)           -179.9649         estimate D2E/DX2                !
 ! D11   D(9,2,3,4)           -179.7735         estimate D2E/DX2                !
 ! D12   D(9,2,3,7)              0.2271         estimate D2E/DX2                !
 ! D13   D(2,3,4,5)              0.0336         estimate D2E/DX2                !
 ! D14   D(2,3,4,19)          -179.7721         estimate D2E/DX2                !
 ! D15   D(7,3,4,5)           -179.9671         estimate D2E/DX2                !
 ! D16   D(7,3,4,19)             0.2272         estimate D2E/DX2                !
 ! D17   D(3,4,5,6)             -0.0658         estimate D2E/DX2                !
 ! D18   D(3,4,5,8)           -179.1701         estimate D2E/DX2                !
 ! D19   D(19,4,5,6)           179.7402         estimate D2E/DX2                !
 ! D20   D(19,4,5,8)             0.6359         estimate D2E/DX2                !
 ! D21   D(4,5,6,1)              0.0293         estimate D2E/DX2                !
 ! D22   D(4,5,6,14)          -179.9664         estimate D2E/DX2                !
 ! D23   D(8,5,6,1)            179.1233         estimate D2E/DX2                !
 ! D24   D(8,5,6,14)            -0.8723         estimate D2E/DX2                !
 ! D25   D(1,6,14,13)          142.1519         estimate D2E/DX2                !
 ! D26   D(1,6,14,15)          -37.8554         estimate D2E/DX2                !
 ! D27   D(5,6,14,13)          -37.8526         estimate D2E/DX2                !
 ! D28   D(5,6,14,15)          142.1401         estimate D2E/DX2                !
 ! D29   D(16,11,12,13)         -0.0686         estimate D2E/DX2                !
 ! D30   D(16,11,12,21)       -179.6569         estimate D2E/DX2                !
 ! D31   D(20,11,12,13)        179.9407         estimate D2E/DX2                !
 ! D32   D(20,11,12,21)          0.3524         estimate D2E/DX2                !
 ! D33   D(12,11,16,15)         -0.0584         estimate D2E/DX2                !
 ! D34   D(12,11,16,24)       -179.6515         estimate D2E/DX2                !
 ! D35   D(20,11,16,15)        179.9323         estimate D2E/DX2                !
 ! D36   D(20,11,16,24)          0.3392         estimate D2E/DX2                !
 ! D37   D(11,12,13,14)          0.1294         estimate D2E/DX2                !
 ! D38   D(11,12,13,17)       -178.8774         estimate D2E/DX2                !
 ! D39   D(21,12,13,14)        179.7177         estimate D2E/DX2                !
 ! D40   D(21,12,13,17)          0.7109         estimate D2E/DX2                !
 ! D41   D(11,12,21,22)       -146.7793         estimate D2E/DX2                !
 ! D42   D(11,12,21,23)        -32.4279         estimate D2E/DX2                !
 ! D43   D(11,12,21,27)         90.4184         estimate D2E/DX2                !
 ! D44   D(13,12,21,22)         33.6355         estimate D2E/DX2                !
 ! D45   D(13,12,21,23)        147.9869         estimate D2E/DX2                !
 ! D46   D(13,12,21,27)        -89.1668         estimate D2E/DX2                !
 ! D47   D(12,13,14,6)         179.9325         estimate D2E/DX2                !
 ! D48   D(12,13,14,15)         -0.0604         estimate D2E/DX2                !
 ! D49   D(17,13,14,6)          -1.0656         estimate D2E/DX2                !
 ! D50   D(17,13,14,15)        178.9414         estimate D2E/DX2                !
 ! D51   D(6,14,15,16)         179.9373         estimate D2E/DX2                !
 ! D52   D(6,14,15,18)          -1.0555         estimate D2E/DX2                !
 ! D53   D(13,14,15,16)         -0.0698         estimate D2E/DX2                !
 ! D54   D(13,14,15,18)        178.9374         estimate D2E/DX2                !
 ! D55   D(14,15,16,11)          0.1291         estimate D2E/DX2                !
 ! D56   D(14,15,16,24)        179.7223         estimate D2E/DX2                !
 ! D57   D(18,15,16,11)       -178.883          estimate D2E/DX2                !
 ! D58   D(18,15,16,24)          0.7101         estimate D2E/DX2                !
 ! D59   D(11,16,24,25)       -146.7303         estimate D2E/DX2                !
 ! D60   D(11,16,24,26)        -32.384          estimate D2E/DX2                !
 ! D61   D(11,16,24,30)         90.4668         estimate D2E/DX2                !
 ! D62   D(15,16,24,25)         33.6797         estimate D2E/DX2                !
 ! D63   D(15,16,24,26)        148.026          estimate D2E/DX2                !
 ! D64   D(15,16,24,30)        -89.1233         estimate D2E/DX2                !
 ! D65   D(12,21,27,28)        -58.0018         estimate D2E/DX2                !
 ! D66   D(12,21,27,29)         57.978          estimate D2E/DX2                !
 ! D67   D(12,21,27,33)        179.9791         estimate D2E/DX2                !
 ! D68   D(22,21,27,28)        179.9708         estimate D2E/DX2                !
 ! D69   D(22,21,27,29)        -64.0495         estimate D2E/DX2                !
 ! D70   D(22,21,27,33)         57.9516         estimate D2E/DX2                !
 ! D71   D(23,21,27,28)         64.0969         estimate D2E/DX2                !
 ! D72   D(23,21,27,29)       -179.9233         estimate D2E/DX2                !
 ! D73   D(23,21,27,33)        -57.9223         estimate D2E/DX2                !
 ! D74   D(16,24,30,31)        -58.004          estimate D2E/DX2                !
 ! D75   D(16,24,30,32)         57.9678         estimate D2E/DX2                !
 ! D76   D(16,24,30,37)        179.9832         estimate D2E/DX2                !
 ! D77   D(25,24,30,31)        179.9686         estimate D2E/DX2                !
 ! D78   D(25,24,30,32)        -64.0596         estimate D2E/DX2                !
 ! D79   D(25,24,30,37)         57.9557         estimate D2E/DX2                !
 ! D80   D(26,24,30,31)         64.0995         estimate D2E/DX2                !
 ! D81   D(26,24,30,32)       -179.9287         estimate D2E/DX2                !
 ! D82   D(26,24,30,37)        -57.9133         estimate D2E/DX2                !
 ! D83   D(21,27,33,34)        179.9993         estimate D2E/DX2                !
 ! D84   D(21,27,33,35)        -60.2181         estimate D2E/DX2                !
 ! D85   D(21,27,33,36)         60.2192         estimate D2E/DX2                !
 ! D86   D(28,27,33,34)         57.8255         estimate D2E/DX2                !
 ! D87   D(28,27,33,35)        177.608          estimate D2E/DX2                !
 ! D88   D(28,27,33,36)        -61.9546         estimate D2E/DX2                !
 ! D89   D(29,27,33,34)        -57.8401         estimate D2E/DX2                !
 ! D90   D(29,27,33,35)         61.9424         estimate D2E/DX2                !
 ! D91   D(29,27,33,36)       -177.6202         estimate D2E/DX2                !
 ! D92   D(24,30,37,38)        179.9998         estimate D2E/DX2                !
 ! D93   D(24,30,37,39)        -60.2298         estimate D2E/DX2                !
 ! D94   D(24,30,37,40)         60.2148         estimate D2E/DX2                !
 ! D95   D(31,30,37,38)         57.8366         estimate D2E/DX2                !
 ! D96   D(31,30,37,39)        177.6071         estimate D2E/DX2                !
 ! D97   D(31,30,37,40)        -61.9483         estimate D2E/DX2                !
 ! D98   D(32,30,37,38)        -57.827          estimate D2E/DX2                !
 ! D99   D(32,30,37,39)         61.9435         estimate D2E/DX2                !
 ! D100  D(32,30,37,40)       -177.612          estimate D2E/DX2                !
 --------------------------------------------------------------------------------
 Trust Radius=3.00D-01 FncErr=1.00D-07 GrdErr=1.00D-06 EigMax=2.50D+02 EigMin=1.00D-04
 Number of steps in this run=    223 maximum allowed number of steps=    240.
 GradGradGradGradGradGradGradGradGradGradGradGradGradGradGradGradGradGrad

                          Input orientation:                          
 ---------------------------------------------------------------------
 Center     Atomic      Atomic             Coordinates (Angstroms)
 Number     Number       Type             X           Y           Z
 ---------------------------------------------------------------------
      1          6           0       -4.696100   -1.113100    2.996800
      2          6           0       -3.388600   -0.824500    3.380200
      3          6           0       -2.326500   -1.439200    2.722900
      4          6           0       -2.563200   -2.338000    1.686600
      5          6           0       -3.872700   -2.621900    1.306300
      6          6           0       -4.956000   -2.014400    1.955500
      7          1           0       -1.311300   -1.217100    3.019200
      8          1           0       -4.045200   -3.331000    0.510100
      9          1           0       -3.200500   -0.124800    4.181500
     10          1           0       -5.512100   -0.620200    3.504500
     11          6           0       -9.001000   -2.899300    0.775000
     12          6           0       -8.001300   -2.797200   -0.193800
     13          6           0       -6.691200   -2.508400    0.197200
     14          6           0       -6.358600   -2.321200    1.546200
     15          6           0       -7.380300   -2.430400    2.499900
     16          6           0       -8.695700   -2.716000    2.124700
     17          1           0       -5.926400   -2.412800   -0.559100
     18          1           0       -7.147800   -2.307800    3.547300
     19          1           0       -1.736200   -2.815700    1.181500
     20          1           0      -10.015900   -3.121400    0.478900
     21          6           0       -8.337200   -2.989500   -1.664400
     22          1           0       -7.485200   -3.451300   -2.166400
     23          1           0       -9.148500   -3.714200   -1.753100
     24          6           0       -9.784500   -2.835400    3.179500
     25          1           0       -9.569900   -2.139600    3.992500
     26          1           0      -10.731000   -2.495900    2.755100
     27          6           0       -8.718200   -1.670200   -2.358900
     28          1           0       -9.570900   -1.220200   -1.847300
     29          1           0       -7.898000   -0.956200   -2.263500
     30          6           0       -9.923600   -4.268400    3.722800
     31          1           0      -10.138400   -4.952500    2.899800
     32          1           0       -8.971000   -4.594000    4.144800
     33          6           0       -9.058100   -1.857400   -3.844500
     34          1           0       -9.323300   -0.905900   -4.306800
     35          1           0       -8.211900   -2.267200   -4.397200
     36          1           0       -9.903100   -2.534200   -3.976600
     37          6           0      -11.021300   -4.395700    4.788800
     38          1           0      -11.094400   -5.421200    5.152800
     39          1           0      -10.817000   -3.755500    5.647900
     40          1           0      -11.997500   -4.118000    4.389400
 ---------------------------------------------------------------------
                    Distance matrix (angstroms):
                    1          2          3          4          5
     1  C    0.000000
     2  C    1.392782   0.000000
     3  C    2.407564   1.392105   0.000000
     4  C    2.786802   2.416661   1.392044   0.000000
     5  C    2.410862   2.786765   2.407544   1.392845   0.000000
     6  C    1.401498   2.429480   2.798933   2.429509   1.401448
     7  H    3.386471   2.144675   1.080626   2.144643   3.386482
     8  H    3.395059   3.866670   3.380728   2.136943   1.080053
     9  H    2.148737   1.080298   2.149195   3.395428   3.867058
    10  H    1.080077   2.136923   3.380785   3.866731   3.395073
    11  C    5.163242   6.526170   7.104587   6.526204   5.163206
    12  C    4.892900   6.159710   6.523393   5.772322   4.396177
    13  C    3.710128   4.886121   5.154896   4.391780   3.030994
    14  C    2.515483   3.797969   4.291897   3.798033   2.515486
    15  C    3.031026   4.391755   5.154910   4.886148   3.710069
    16  C    4.396208   5.772293   6.523402   6.159738   4.892848
    17  H    3.980865   4.947849   4.967766   4.044735   2.782287
    18  H    2.782300   4.044711   4.967800   4.947896   3.980832
    19  H    3.867191   3.395524   2.149214   1.080395   2.148899
    20  H    6.218791   7.590415   8.184877   7.590454   6.218762
    21  C    6.205262   7.390795   7.601338   6.707662   5.375123
    22  H    6.317032   7.378820   7.386879   6.349105   5.079144
    23  H    7.010787   8.238785   8.470530   7.555901   6.195733
    24  C    5.375082   6.707573   7.601291   7.390760   6.205146
    25  H    5.079276   6.349242   7.387103   7.379050   6.317149
    26  H    6.196013   7.556134   8.470730   8.238907   7.010790
    27  C    6.720950   7.877634   8.168958   7.395678   6.149658
    28  H    6.873169   8.105811   8.568315   7.927533   6.661789
    29  H    6.160157   7.225191   7.492602   6.780321   5.632146
    30  C    6.148963   7.394866   8.168237   7.877058   6.720404
    31  H    6.661008   7.926599   8.567401   8.105006   6.872404
    32  H    5.631105   6.779154   7.491591   7.224416   6.159458
    33  C    8.147663   9.241558   9.413823   8.544458   7.348712
    34  H    8.648496   9.711707   9.932588   9.147169   8.010030
    35  H    8.268254   9.264640   9.274661   8.302135   7.175262
    36  H    8.818202   9.974181  10.172866   9.272781   8.017634
    37  C    7.348121   8.543754   9.413203   9.241062   8.147187
    38  H    8.009139   9.146098   9.931607   9.710924   8.647809
    39  H    7.174679   8.301467   9.274129   9.264255   8.267880
    40  H    8.017431   9.272475  10.172582   9.973943   8.817947
                    6          7          8          9         10
     6  C    0.000000
     7  H    3.879560   0.000000
     8  H    2.156890   4.270640   0.000000
     9  H    3.406970   2.472476   4.946960   0.000000
    10  H    2.156952   4.270659   4.297286   2.459115   0.000000
    11  C    4.305654   8.185213   4.981615   7.276530   4.981655
    12  C    3.808690   7.587897   4.053535   7.023721   4.961136
    13  C    2.519241   6.210834   2.788529   5.808716   3.986704
    14  C    1.492963   5.372523   2.728556   4.662893   2.728535
    15  C    2.519257   6.210840   3.986637   5.061057   2.788587
    16  C    3.808704   7.587898   4.961079   6.414200   4.053583
    17  H    2.724631   5.960963   2.350573   5.927796   4.460707
    18  H    2.724683   5.960977   4.460678   4.555093   2.350604
    19  H    3.407091   2.472489   2.459226   4.287787   4.947117
    20  H    5.385943   9.265503   5.974459   8.314959   5.974485
    21  C    5.048466   8.627907   4.823519   8.292571   6.349197
    22  H    5.044957   8.366549   4.360244   8.349856   6.638325
    23  H    5.849794   9.509577   5.595765   9.136847   7.102014
    24  C    5.048428   8.627845   6.349085   7.190300   4.823499
    25  H    5.045108   8.366767   6.638438   6.683143   4.360328
    26  H    5.849943   9.509775   7.101925   8.022790   5.596139
    27  C    5.734690   9.164684   5.729428   8.695407   6.764690
    28  H    6.032358   9.586648   6.367588   8.839023   6.743561
    29  H    5.251201   8.447461   5.308164   8.018464   6.251019
    30  C    5.734188   9.163907   6.764299   7.910746   5.728730
    31  H    6.031700   9.585675   6.742923   8.548912   6.366878
    32  H    5.250485   8.446386   6.250577   7.298888   5.307076
    33  C    7.105763  10.369825   6.801706  10.086132   8.253035
    34  H    7.714822  10.860905   7.545991  10.495239   8.696165
    35  H    7.142940  10.184497   6.524925  10.163567   8.511075
    36  H    7.741692  11.157733   7.421614  10.829804   8.883194
    37  C    7.105353  10.369141   8.252686   8.931647   6.801111
    38  H    7.714206  10.859823   8.695678   9.555571   7.545102
    39  H    7.142588  10.183903   8.510844   8.564075   6.524280
    40  H    7.741558  11.157398   8.882984   9.663130   7.421460
                   11         12         13         14         15
    11  C    0.000000
    12  C    1.395850   0.000000
    13  C    2.412847   1.397372   0.000000
    14  C    2.812690   2.439803   1.401951   0.000000
    15  C    2.412844   2.788584   2.404864   1.401906   0.000000
    16  C    1.395886   2.421617   2.788615   2.439788   1.397362
    17  H    3.386690   2.141592   1.079837   2.151157   3.386977
    18  H    3.386720   3.868308   3.387018   2.151143   1.079877
    19  H    7.276644   6.414302   5.061156   4.663059   5.808829
    20  H    1.080290   2.148545   3.392455   3.892980   3.392390
    21  C    2.529711   1.520682   2.531072   3.830070   4.309251
    22  H    3.354726   2.141345   2.665727   4.041009   4.777823
    23  H    2.660283   2.142049   3.360944   4.539755   4.781494
    24  C    2.529738   3.815811   4.309240   3.829995   2.531019
    25  H    3.354564   4.518634   4.777785   4.041016   2.665852
    26  H    2.660156   4.029647   4.781526   4.539806   3.361043
    27  C    3.378164   2.543960   3.368227   4.608831   5.096648
    28  H    3.165536   2.772117   3.759270   4.800720   5.016120
    29  H    3.771568   2.771933   3.149720   4.329757   5.013109
    30  C    3.378631   4.604283   5.096652   4.608514   3.367804
    31  H    3.166083   4.333921   5.016060   4.800298   3.758726
    32  H    3.772063   4.795024   5.013059   4.329316   3.149157
    33  C    4.735884   3.915056   4.728779   6.046657   6.587469
    34  H    5.468292   4.716086   5.457286   6.711939   7.240892
    35  H    5.270093   4.241913   4.845536   6.225885   6.948970
    36  H    4.850236   4.242121   5.266647   6.565833   6.951284
    37  C    4.736182   6.041681   6.587447   6.046385   4.728462
    38  H    5.468769   6.711093   7.240894   6.711584   5.456858
    39  H    5.270303   6.555300   6.948929   6.225632   4.845276
    40  H    4.850580   6.222528   6.951415   6.565780   5.266568
                   16         17         18         19         20
    16  C    0.000000
    17  H    3.868299   0.000000
    18  H    2.141591   4.285483   0.000000
    19  H    7.023831   4.555194   5.927933   0.000000
    20  H    2.148473   4.278267   4.278203   8.315079   0.000000
    21  C    3.815836   2.714080   5.388989   7.190449   2.725650
    22  H    4.518796   2.468148   5.836763   6.683070   3.675716
    23  H    4.029735   3.674399   5.837380   8.022554   2.466905
    24  C    1.520640   5.388938   2.714005   8.292619   2.725543
    25  H    2.141294   5.836677   2.468413   8.350191   3.675355
    26  H    2.142030   5.837380   3.674546   9.137008   2.466517
    27  C    4.604006   3.403657   6.144582   7.911696   3.441383
    28  H    4.333610   4.045261   6.012986   8.549958   3.037070
    29  H    4.794739   2.985610   6.012904   7.300243   4.085872
    30  C    2.543935   6.144553   3.402913   8.694945   3.441949
    31  H    2.772020   6.012904   4.044426   8.838294   3.037876
    32  H    2.771909   6.012811   2.984590   8.017844   4.086464
    33  C    6.041513   4.572731   7.647929   8.932482   4.605091
    34  H    6.710778   5.277777   8.269523   9.556823   5.318934
    35  H    6.555201   4.469421   8.015550   8.564896   5.268816
    36  H    6.222277   5.244825   8.015735   9.663514   4.495443
    37  C    3.915001   7.647871   4.572160  10.085737   4.605422
    38  H    4.716064   8.269492   5.276982  10.494559   5.319547
    39  H    4.241864   8.015464   4.468935  10.163311   5.269004
    40  H    4.242211   8.015835   5.244573  10.829630   4.495771
                   21         22         23         24         25
    21  C    0.000000
    22  H    1.091406   0.000000
    23  H    1.091451   1.733926   0.000000
    24  C    5.057845   5.851902   5.050478   0.000000
    25  H    5.851700   6.633143   5.972341   1.091403   0.000000
    26  H    5.050337   5.972367   4.930763   1.091438   1.733857
    27  C    1.538845   2.174779   2.174876   5.759215   6.425419
    28  H    2.164692   3.070794   2.531271   5.284242   5.911731
    29  H    2.164746   2.530881   3.070964   6.059416   6.582797
    30  C    5.759703   6.426206   5.558183   1.538835   2.174772
    31  H    5.284847   5.912652   4.915564   2.164622   3.070764
    32  H    6.059944   6.583662   5.965801   2.164777   2.530999
    33  C    2.560114   2.798312   2.798184   7.128865   7.858762
    34  H    3.506574   3.799866   3.799801   7.744699   8.394117
    35  H    2.829419   2.628051   3.156310   7.759014   8.499854
    36  H    2.829419   3.156602   2.627884   7.163418   7.985818
    37  C    7.129206   7.859434   6.838734   2.560089   2.798329
    38  H    7.745291   8.395089   7.375082   3.506581   3.799907
    39  H    7.759246   8.500395   7.586857   2.829424   2.628068
    40  H    7.163784   7.986479   6.783079   2.829539   3.156713
                   26         27         28         29         30
    26  H    0.000000
    27  C    5.557530   0.000000
    28  H    4.914807   1.091481   0.000000
    29  H    5.965141   1.091616   1.743993   0.000000
    30  C    2.174878   6.722403   6.359397   7.135090   0.000000
    31  H    2.531205   6.359590   6.065235   6.902860   1.091541
    32  H    3.070975   7.135168   6.902729   7.446558   1.091580
    33  C    6.838201   1.535442   2.158193   2.158137   7.989120
    34  H    7.374290   2.178214   2.491833   2.491804   8.725895
    35  H    7.586407   2.183441   3.073285   2.523872   8.536341
    36  H    6.782527   2.183446   2.524059   3.073308   7.892315
    37  C    2.798115   7.988882   7.498352   8.445123   1.535417
    38  H    3.799790   8.725936   8.304869   9.227931   2.178215
    39  H    3.156308   8.535941   8.009902   8.885206   2.183401
    40  H    2.627959   7.892090   7.292603   8.429944   2.183584
                   31         32         33         34         35
    31  H    0.000000
    32  H    1.743952   0.000000
    33  C    7.498818   8.445441   0.000000
    34  H    8.305085   9.227987   1.090598   0.000000
    35  H    8.010521   8.885719   1.090627   1.759693   0.000000
    36  H    7.293039   8.430227   1.090657   1.759705   1.763052
    37  C    2.158208   2.158191   9.210374   9.888976   9.838996
    38  H    2.491912   2.491817   9.889317  10.630558  10.462267
    39  H    3.073331   2.523907   9.838809  10.461712  10.483588
    40  H    2.524193   3.073452   9.030365   9.648462   9.744771
                   36         37         38         39         40
    36  H    0.000000
    37  C    9.030382   0.000000
    38  H    9.648829   1.090637   0.000000
    39  H    9.744629   1.090710   1.759725   0.000000
    40  H    8.768403   1.090690   1.759744   1.763181   0.000000
 Stoichiometry    C18H22
 Framework group  C1[X(C18H22)]
 Deg. of freedom   114
 Full point group                 C1      NOp   1
 Largest Abelian subgroup         C1      NOp   1
 Largest concise Abelian subgroup C1      NOp   1
                         Standard orientation:                         
 ---------------------------------------------------------------------
 Center     Atomic      Atomic             Coordinates (Angstroms)
 Number     Number       Type             X           Y           Z
 ---------------------------------------------------------------------
      1          6           0       -2.992224    0.742137    0.949538
      2          6           0       -4.385003    0.743121    0.952276
      3          6           0       -5.076157   -0.000854    0.000035
      4          6           0       -4.384836   -0.744583   -0.952188
      5          6           0       -2.991995   -0.743130   -0.949472
      6          6           0       -2.277224   -0.000440    0.000038
      7          1           0       -6.156783   -0.000999    0.000061
      8          1           0       -2.465828   -1.312878   -1.701170
      9          1           0       -4.925293    1.316040    1.691799
     10          1           0       -2.466200    1.312020    1.701267
     11          6           0        2.028430    0.000214   -0.000015
     12          6           0        1.334060   -1.173775   -0.296660
     13          6           0       -0.063287   -1.166214   -0.293270
     14          6           0       -0.784260   -0.000186    0.000062
     15          6           0       -0.063622    1.166032    0.293245
     16          6           0        1.333713    1.174054    0.296572
     17          1           0       -0.593941   -2.082360   -0.505707
     18          1           0       -0.594551    2.082056    0.505727
     19          1           0       -4.925031   -1.317699   -1.691770
     20          1           0        3.108720    0.000479   -0.000088
     21          6           0        2.092539   -2.453544   -0.611898
     22          1           0        1.524740   -3.032812   -1.342118
     23          1           0        3.027940   -2.199350   -1.113570
     24          6           0        2.091749    2.454046    0.611763
     25          1           0        1.524157    3.032739    1.342594
     26          1           0        3.027580    2.200177    1.112770
     27          6           0        2.369888   -3.298358    0.644052
     28          1           0        2.938135   -2.707361    1.364573
     29          1           0        1.426487   -3.546035    1.134231
     30          6           0        2.367837    3.299485   -0.644032
     31          1           0        2.935956    2.708912   -1.365090
     32          1           0        1.424077    3.546779   -1.133634
     33          6           0        3.135191   -4.592510    0.332499
     34          1           0        3.315633   -5.167360    1.241561
     35          1           0        2.576065   -5.229384   -0.353968
     36          1           0        4.104314   -4.381658   -0.121236
     37          6           0        3.132785    4.593825   -0.332509
     38          1           0        3.312323    5.169136   -1.241505
     39          1           0        2.573647    5.230237    0.354508
     40          1           0        4.102358    4.383411    0.120546
 ---------------------------------------------------------------------
 Rotational constants (GHZ):           0.3790660           0.2601898           0.1640166
 Standard basis: def2TZVP (5D, 7F)
 There are   780 symmetry adapted cartesian basis functions of A   symmetry.
 There are   690 symmetry adapted basis functions of A   symmetry.
   690 basis functions,  1094 primitive gaussians,   780 cartesian basis functions
    65 alpha electrons       65 beta electrons
       nuclear repulsion energy      1196.2893006879 Hartrees.
 NAtoms=   40 NActive=   40 NUniq=   40 SFac= 1.00D+00 NAtFMM=   60 NAOKFM=F Big=F
 Integral buffers will be    131072 words long.
 Raffenetti 2 integral format.
 Two-electron integral symmetry is turned on.
 One-electron integrals computed using PRISM.
   1 Symmetry operations used in ECPInt.
 ECPInt:  NShTT=   41041 NPrTT=  121740 LenC2=   34836 LenP2D=   74010.
 LDataN:  DoStor=T MaxTD1= 6 Len=  172
 NBasis=   690 RedAO= T EigKep=  5.88D-06  NBF=   690
 NBsUse=   690 1.00D-06 EigRej= -1.00D+00 NBFU=   690
 ExpMin= 9.52D-02 ExpMax= 1.36D+04 ExpMxC= 4.63D+02 IAcc=3 IRadAn=         5 AccDes= 0.00D+00
 Harris functional with IExCor= 1009 and IRadAn=       5 diagonalized for initial guess.
 HarFok:  IExCor= 1009 AccDes= 0.00D+00 IRadAn=         5 IDoV= 1 UseB2=F ITyADJ=14
 ICtDFT=  3500011 ScaDFX=  1.000000  1.000000  1.000000  1.000000
 FoFCou: FMM=F IPFlag=           0 FMFlag=      100000 FMFlg1=           0
         NFxFlg=           0 DoJE=T BraDBF=F KetDBF=T FulRan=T
         wScrn=  0.000000 ICntrl=       500 IOpCl=  0 I1Cent=   200000004 NGrid=           0
         NMat0=    1 NMatS0=      1 NMatT0=    0 NMatD0=    1 NMtDS0=    0 NMtDT0=    0
 Petite list used in FoFCou.
 Requested convergence on RMS density matrix=1.00D-08 within 128 cycles.
 Requested convergence on MAX density matrix=1.00D-06.
 Requested convergence on             energy=1.00D-06.
 No special actions if energy rises.
 Integral accuracy reduced to 1.0D-05 until final iterations.
 Problem detected with inexpensive integrals.
 Switching to full accuracy and repeating last cycle.
 SCF Done:  E(RM062X) =  -699.115534775     A.U. after   14 cycles
            NFock= 14  Conv=0.89D-08     -V/T= 2.0056

 **********************************************************************

            Population analysis using the SCF Density.

 **********************************************************************

 Orbital symmetries:
       Occupied  (A) (A) (A) (A) (A) (A) (A) (A) (A) (A) (A) (A)
                 (A) (A) (A) (A) (A) (A) (A) (A) (A) (A) (A) (A)
                 (A) (A) (A) (A) (A) (A) (A) (A) (A) (A) (A) (A)
                 (A) (A) (A) (A) (A) (A) (A) (A) (A) (A) (A) (A)
                 (A) (A) (A) (A) (A) (A) (A) (A) (A) (A) (A) (A)
                 (A) (A) (A) (A) (A)
       Virtual   (A) (A) (A) (A) (A) (A) (A) (A) (A) (A) (A) (A)
                 (A) (A) (A) (A) (A) (A) (A) (A) (A) (A) (A) (A)
                 (A) (A) (A) (A) (A) (A) (A) (A) (A) (A) (A) (A)
                 (A) (A) (A) (A) (A) (A) (A) (A) (A) (A) (A) (A)
                 (A) (A) (A) (A) (A) (A) (A) (A) (A) (A) (A) (A)
                 (A) (A) (A) (A) (A) (A) (A) (A) (A) (A) (A) (A)
                 (A) (A) (A) (A) (A) (A) (A) (A) (A) (A) (A) (A)
                 (A) (A) (A) (A) (A) (A) (A) (A) (A) (A) (A) (A)
                 (A) (A) (A) (A) (A) (A) (A) (A) (A) (A) (A) (A)
                 (A) (A) (A) (A) (A) (A) (A) (A) (A) (A) (A) (A)
                 (A) (A) (A) (A) (A) (A) (A) (A) (A) (A) (A) (A)
                 (A) (A) (A) (A) (A) (A) (A) (A) (A) (A) (A) (A)
                 (A) (A) (A) (A) (A) (A) (A) (A) (A) (A) (A) (A)
                 (A) (A) (A) (A) (A) (A) (A) (A) (A) (A) (A) (A)
                 (A) (A) (A) (A) (A) (A) (A) (A) (A) (A) (A) (A)
                 (A) (A) (A) (A) (A) (A) (A) (A) (A) (A) (A) (A)
                 (A) (A) (A) (A) (A) (A) (A) (A) (A) (A) (A) (A)
                 (A) (A) (A) (A) (A) (A) (A) (A) (A) (A) (A) (A)
                 (A) (A) (A) (A) (A) (A) (A) (A) (A) (A) (A) (A)
                 (A) (A) (A) (A) (A) (A) (A) (A) (A) (A) (A) (A)
                 (A) (A) (A) (A) (A) (A) (A) (A) (A) (A) (A) (A)
                 (A) (A) (A) (A) (A) (A) (A) (A) (A) (A) (A) (A)
                 (A) (A) (A) (A) (A) (A) (A) (A) (A) (A) (A) (A)
                 (A) (A) (A) (A) (A) (A) (A) (A) (A) (A) (A) (A)
                 (A) (A) (A) (A) (A) (A) (A) (A) (A) (A) (A) (A)
                 (A) (A) (A) (A) (A) (A) (A) (A) (A) (A) (A) (A)
                 (A) (A) (A) (A) (A) (A) (A) (A) (A) (A) (A) (A)
                 (A) (A) (A) (A) (A) (A) (A) (A) (A) (A) (A) (A)
                 (A) (A) (A) (A) (A) (A) (A) (A) (A) (A) (A) (A)
                 (A) (A) (A) (A) (A) (A) (A) (A) (A) (A) (A) (A)
                 (A) (A) (A) (A) (A) (A) (A) (A) (A) (A) (A) (A)
                 (A) (A) (A) (A) (A) (A) (A) (A) (A) (A) (A) (A)
                 (A) (A) (A) (A) (A) (A) (A) (A) (A) (A) (A) (A)
                 (A) (A) (A) (A) (A) (A) (A) (A) (A) (A) (A) (A)
                 (A) (A) (A) (A) (A) (A) (A) (A) (A) (A) (A) (A)
                 (A) (A) (A) (A) (A) (A) (A) (A) (A) (A) (A) (A)
                 (A) (A) (A) (A) (A) (A) (A) (A) (A) (A) (A) (A)
                 (A) (A) (A) (A) (A) (A) (A) (A) (A) (A) (A) (A)
                 (A) (A) (A) (A) (A) (A) (A) (A) (A) (A) (A) (A)
                 (A) (A) (A) (A) (A) (A) (A) (A) (A) (A) (A) (A)
                 (A) (A) (A) (A) (A) (A) (A) (A) (A) (A) (A) (A)
                 (A) (A) (A) (A) (A) (A) (A) (A) (A) (A) (A) (A)
                 (A) (A) (A) (A) (A) (A) (A) (A) (A) (A) (A) (A)
                 (A) (A) (A) (A) (A) (A) (A) (A) (A) (A) (A) (A)
                 (A) (A) (A) (A) (A) (A) (A) (A) (A) (A) (A) (A)
                 (A) (A) (A) (A) (A) (A) (A) (A) (A) (A) (A) (A)
                 (A) (A) (A) (A) (A) (A) (A) (A) (A) (A) (A) (A)
                 (A) (A) (A) (A) (A) (A) (A) (A) (A) (A) (A) (A)
                 (A) (A) (A) (A) (A) (A) (A) (A) (A) (A) (A) (A)
                 (A) (A) (A) (A) (A) (A) (A) (A) (A) (A) (A) (A)
                 (A) (A) (A) (A) (A) (A) (A) (A) (A) (A) (A) (A)
                 (A) (A) (A) (A) (A) (A) (A) (A) (A) (A) (A) (A)
                 (A)
 The electronic state is 1-A.
 Alpha  occ. eigenvalues --  -10.55292 -10.55066 -10.54542 -10.54541 -10.54175
 Alpha  occ. eigenvalues --  -10.54168 -10.54090 -10.54083 -10.53958 -10.53452
 Alpha  occ. eigenvalues --  -10.53452 -10.53410 -10.53407 -10.53275 -10.53196
 Alpha  occ. eigenvalues --  -10.53195 -10.52222 -10.52220  -0.97411  -0.95406
 Alpha  occ. eigenvalues --   -0.90315  -0.89163  -0.86314  -0.84471  -0.83856
 Alpha  occ. eigenvalues --   -0.81530  -0.77044  -0.76437  -0.70695  -0.69467
 Alpha  occ. eigenvalues --   -0.68004  -0.67773  -0.64746  -0.63887  -0.59546
 Alpha  occ. eigenvalues --   -0.56728  -0.55524  -0.53733  -0.52699  -0.51877
 Alpha  occ. eigenvalues --   -0.50640  -0.50044  -0.49404  -0.48722  -0.48533
 Alpha  occ. eigenvalues --   -0.48187  -0.47585  -0.44865  -0.44709  -0.43760
 Alpha  occ. eigenvalues --   -0.43241  -0.42824  -0.42025  -0.41394  -0.40544
 Alpha  occ. eigenvalues --   -0.40320  -0.39362  -0.39344  -0.38941  -0.37852
 Alpha  occ. eigenvalues --   -0.37201  -0.32610  -0.30825  -0.28941  -0.27435
 Alpha virt. eigenvalues --   -0.00316   0.01920   0.02561   0.05358   0.06178
 Alpha virt. eigenvalues --    0.07162   0.08467   0.09367   0.09550   0.09727
 Alpha virt. eigenvalues --    0.10707   0.11784   0.11832   0.12532   0.12576
 Alpha virt. eigenvalues --    0.13076   0.14365   0.14745   0.14886   0.15273
 Alpha virt. eigenvalues --    0.15645   0.16370   0.16511   0.16731   0.17025
 Alpha virt. eigenvalues --    0.17912   0.18252   0.18597   0.18953   0.19297
 Alpha virt. eigenvalues --    0.20272   0.21275   0.21838   0.22424   0.23214
 Alpha virt. eigenvalues --    0.23401   0.23954   0.24721   0.24968   0.25098
 Alpha virt. eigenvalues --    0.25284   0.25882   0.26201   0.26949   0.27355
 Alpha virt. eigenvalues --    0.27373   0.27474   0.28523   0.29068   0.29809
 Alpha virt. eigenvalues --    0.30368   0.31035   0.31269   0.31811   0.32606
 Alpha virt. eigenvalues --    0.32785   0.33528   0.33608   0.34994   0.35410
 Alpha virt. eigenvalues --    0.35813   0.35980   0.36544   0.37036   0.38002
 Alpha virt. eigenvalues --    0.38376   0.38805   0.39508   0.39685   0.40486
 Alpha virt. eigenvalues --    0.40744   0.40966   0.41499   0.41942   0.42090
 Alpha virt. eigenvalues --    0.42903   0.43138   0.43548   0.44558   0.44919
 Alpha virt. eigenvalues --    0.45219   0.45676   0.45901   0.46036   0.46310
 Alpha virt. eigenvalues --    0.46813   0.47382   0.47854   0.48262   0.48788
 Alpha virt. eigenvalues --    0.49155   0.49475   0.49618   0.50063   0.50134
 Alpha virt. eigenvalues --    0.50513   0.51620   0.51744   0.52025   0.52525
 Alpha virt. eigenvalues --    0.53272   0.53296   0.53691   0.54776   0.54923
 Alpha virt. eigenvalues --    0.56364   0.56750   0.56771   0.57119   0.58562
 Alpha virt. eigenvalues --    0.59095   0.59945   0.61149   0.61272   0.62382
 Alpha virt. eigenvalues --    0.63249   0.64310   0.64548   0.64650   0.65905
 Alpha virt. eigenvalues --    0.66137   0.67126   0.68542   0.68643   0.68792
 Alpha virt. eigenvalues --    0.70020   0.70598   0.70826   0.71162   0.71727
 Alpha virt. eigenvalues --    0.73620   0.73915   0.73958   0.74234   0.75134
 Alpha virt. eigenvalues --    0.76553   0.76679   0.78022   0.78590   0.78980
 Alpha virt. eigenvalues --    0.79669   0.80784   0.82588   0.83478   0.83853
 Alpha virt. eigenvalues --    0.84679   0.84728   0.86279   0.86422   0.86998
 Alpha virt. eigenvalues --    0.87887   0.87974   0.88740   0.88775   0.89663
 Alpha virt. eigenvalues --    0.90128   0.91422   0.92070   0.92230   0.93019
 Alpha virt. eigenvalues --    0.93670   0.94246   0.95620   0.96752   0.97297
 Alpha virt. eigenvalues --    0.98390   0.98816   1.02041   1.02373   1.02892
 Alpha virt. eigenvalues --    1.03785   1.04863   1.05614   1.05617   1.06041
 Alpha virt. eigenvalues --    1.06701   1.07647   1.08397   1.10132   1.10482
 Alpha virt. eigenvalues --    1.11544   1.12131   1.13248   1.14752   1.15353
 Alpha virt. eigenvalues --    1.16203   1.16769   1.17763   1.17931   1.18928
 Alpha virt. eigenvalues --    1.19408   1.21207   1.22550   1.23655   1.24692
 Alpha virt. eigenvalues --    1.24847   1.24936   1.26094   1.27314   1.27613
 Alpha virt. eigenvalues --    1.27910   1.28116   1.30808   1.30825   1.31187
 Alpha virt. eigenvalues --    1.32098   1.32558   1.32706   1.35701   1.36527
 Alpha virt. eigenvalues --    1.36684   1.36988   1.37835   1.38020   1.40715
 Alpha virt. eigenvalues --    1.41425   1.43712   1.44379   1.45510   1.45837
 Alpha virt. eigenvalues --    1.46213   1.48302   1.48624   1.50005   1.51146
 Alpha virt. eigenvalues --    1.51307   1.54393   1.54828   1.55001   1.55292
 Alpha virt. eigenvalues --    1.55898   1.57411   1.57979   1.58596   1.59389
 Alpha virt. eigenvalues --    1.60148   1.60239   1.60892   1.61330   1.61441
 Alpha virt. eigenvalues --    1.62588   1.62733   1.63472   1.63706   1.63930
 Alpha virt. eigenvalues --    1.64980   1.65157   1.65584   1.65690   1.67734
 Alpha virt. eigenvalues --    1.68559   1.69059   1.69129   1.71711   1.72206
 Alpha virt. eigenvalues --    1.73308   1.74197   1.74370   1.74586   1.75608
 Alpha virt. eigenvalues --    1.76041   1.76594   1.77321   1.79876   1.80118
 Alpha virt. eigenvalues --    1.80288   1.81729   1.82093   1.82704   1.83971
 Alpha virt. eigenvalues --    1.84987   1.88013   1.88664   1.89816   1.90456
 Alpha virt. eigenvalues --    1.91107   1.91601   1.91813   1.94008   1.94253
 Alpha virt. eigenvalues --    1.95218   1.95588   1.98043   1.98205   1.99374
 Alpha virt. eigenvalues --    2.00381   2.01526   2.02537   2.03129   2.03660
 Alpha virt. eigenvalues --    2.04501   2.04765   2.05850   2.07427   2.07607
 Alpha virt. eigenvalues --    2.09357   2.10808   2.13283   2.13404   2.14004
 Alpha virt. eigenvalues --    2.15317   2.15821   2.17222   2.17800   2.18463
 Alpha virt. eigenvalues --    2.19298   2.20811   2.21138   2.22051   2.22789
 Alpha virt. eigenvalues --    2.23819   2.23919   2.26661   2.26803   2.27728
 Alpha virt. eigenvalues --    2.27980   2.29327   2.32120   2.32239   2.35613
 Alpha virt. eigenvalues --    2.35812   2.35966   2.36067   2.37284   2.37443
 Alpha virt. eigenvalues --    2.39681   2.40364   2.41305   2.42001   2.42136
 Alpha virt. eigenvalues --    2.42695   2.44269   2.45379   2.45712   2.46564
 Alpha virt. eigenvalues --    2.48084   2.48827   2.49372   2.50716   2.52756
 Alpha virt. eigenvalues --    2.53076   2.53502   2.53666   2.55262   2.55871
 Alpha virt. eigenvalues --    2.56998   2.57615   2.57865   2.58599   2.60407
 Alpha virt. eigenvalues --    2.60854   2.61507   2.62198   2.63126   2.63230
 Alpha virt. eigenvalues --    2.64202   2.64717   2.66007   2.66220   2.66257
 Alpha virt. eigenvalues --    2.67334   2.67501   2.67516   2.67969   2.68624
 Alpha virt. eigenvalues --    2.68965   2.69869   2.70087   2.70635   2.70641
 Alpha virt. eigenvalues --    2.71865   2.72369   2.72386   2.73722   2.73827
 Alpha virt. eigenvalues --    2.75333   2.75344   2.75980   2.77551   2.77782
 Alpha virt. eigenvalues --    2.79183   2.79357   2.80699   2.81276   2.82997
 Alpha virt. eigenvalues --    2.83334   2.83583   2.84294   2.84901   2.84931
 Alpha virt. eigenvalues --    2.85498   2.86092   2.86687   2.86837   2.87254
 Alpha virt. eigenvalues --    2.88340   2.88757   2.89999   2.91830   2.92951
 Alpha virt. eigenvalues --    2.93743   2.95584   2.96584   2.98200   2.98652
 Alpha virt. eigenvalues --    3.02205   3.02493   3.03122   3.03532   3.05026
 Alpha virt. eigenvalues --    3.05513   3.05961   3.07167   3.07674   3.07952
 Alpha virt. eigenvalues --    3.07966   3.08327   3.09660   3.10667   3.11281
 Alpha virt. eigenvalues --    3.13362   3.13633   3.13709   3.15102   3.15296
 Alpha virt. eigenvalues --    3.16668   3.17175   3.17398   3.18448   3.18777
 Alpha virt. eigenvalues --    3.19463   3.20216   3.20309   3.21206   3.21514
 Alpha virt. eigenvalues --    3.21869   3.23080   3.24532   3.25147   3.25196
 Alpha virt. eigenvalues --    3.25667   3.27676   3.28080   3.28415   3.28800
 Alpha virt. eigenvalues --    3.29064   3.29579   3.30225   3.30999   3.32344
 Alpha virt. eigenvalues --    3.33036   3.33382   3.33956   3.34107   3.34524
 Alpha virt. eigenvalues --    3.34818   3.35781   3.36888   3.37228   3.38208
 Alpha virt. eigenvalues --    3.38412   3.39703   3.39889   3.40973   3.41003
 Alpha virt. eigenvalues --    3.43055   3.43885   3.44261   3.44991   3.45769
 Alpha virt. eigenvalues --    3.46538   3.46609   3.47121   3.48923   3.49122
 Alpha virt. eigenvalues --    3.49801   3.49969   3.50752   3.51249   3.51567
 Alpha virt. eigenvalues --    3.51849   3.52314   3.52500   3.53227   3.53717
 Alpha virt. eigenvalues --    3.55026   3.55468   3.58244   3.58481   3.59051
 Alpha virt. eigenvalues --    3.60158   3.60657   3.62581   3.63522   3.63697
 Alpha virt. eigenvalues --    3.64254   3.65506   3.65949   3.67885   3.69125
 Alpha virt. eigenvalues --    3.69268   3.69750   3.74063   3.75081   3.77396
 Alpha virt. eigenvalues --    3.77596   3.78980   3.79251   3.80769   3.81861
 Alpha virt. eigenvalues --    3.82827   3.83491   3.86188   3.87186   3.87478
 Alpha virt. eigenvalues --    3.88440   3.91512   3.91935   3.93832   3.95057
 Alpha virt. eigenvalues --    3.96316   3.96713   3.97224   3.97580   4.01257
 Alpha virt. eigenvalues --    4.01878   4.03710   4.05091   4.05187   4.07315
 Alpha virt. eigenvalues --    4.09131   4.09494   4.10619   4.10902   4.11530
 Alpha virt. eigenvalues --    4.13939   4.14728   4.15460   4.16392   4.17424
 Alpha virt. eigenvalues --    4.18411   4.18684   4.19677   4.20101   4.20255
 Alpha virt. eigenvalues --    4.21643   4.21952   4.22874   4.23895   4.24123
 Alpha virt. eigenvalues --    4.26146   4.29944   4.30467   4.32771   4.33979
 Alpha virt. eigenvalues --    4.35623   4.36361   4.38903   4.38989   4.39544
 Alpha virt. eigenvalues --    4.42557   4.42573   4.43070   4.43753   4.48790
 Alpha virt. eigenvalues --    4.51573   4.52611   4.54115   4.55210   4.57266
 Alpha virt. eigenvalues --    4.57568   4.59443   4.61020   4.62078   4.62534
 Alpha virt. eigenvalues --    4.66183   4.66256   4.66918   4.67944   4.72822
 Alpha virt. eigenvalues --    4.73117   4.74404   4.78198   4.80396   4.80536
 Alpha virt. eigenvalues --    4.83500   4.83766   4.85574   4.86411   4.90079
 Alpha virt. eigenvalues --    4.91032   5.02702   5.03220   5.12730   5.17517
 Alpha virt. eigenvalues --    5.22525   5.24802   5.26603   5.29256   5.35486
 Alpha virt. eigenvalues --    5.38491   5.39626   5.41925   5.46653   5.55735
 Alpha virt. eigenvalues --    5.59773   5.75822  22.14629  22.42608  22.43408
 Alpha virt. eigenvalues --   22.43889  22.54894  22.55800  22.64385  22.65995
 Alpha virt. eigenvalues --   22.68838  22.71572  22.84488  22.86519  22.95500
 Alpha virt. eigenvalues --   22.95534  23.11790  23.12104  23.31459  23.48155
          Condensed to atoms (all electrons):
               1          2          3          4          5          6
     1  C    5.013830   0.507125  -0.045775  -0.046149  -0.032675   0.507825
     2  C    0.507125   4.902951   0.524755  -0.038559  -0.046153  -0.057661
     3  C   -0.045775   0.524755   4.877607   0.524824  -0.045779  -0.039122
     4  C   -0.046149  -0.038559   0.524824   4.902944   0.507049  -0.057645
     5  C   -0.032675  -0.046153  -0.045779   0.507049   5.013895   0.507854
     6  C    0.507825  -0.057661  -0.039122  -0.057645   0.507854   4.964705
     7  H    0.004267  -0.035105   0.410554  -0.035101   0.004268   0.000897
     8  H    0.005204  -0.000195   0.002530  -0.022830   0.394444  -0.035937
     9  H   -0.030922   0.407865  -0.031356   0.003492   0.000072   0.004562
    10  H    0.394430  -0.022822   0.002531  -0.000195   0.005204  -0.035937
    11  C   -0.000413  -0.000013   0.000008  -0.000013  -0.000414   0.007126
    12  C   -0.000383   0.000156  -0.000068   0.000041   0.005217  -0.000953
    13  C    0.008768  -0.000679   0.000188   0.000366  -0.005532  -0.067397
    14  C   -0.077876   0.007217  -0.003646   0.007222  -0.077875   0.265688
    15  C   -0.005536   0.000372   0.000186  -0.000679   0.008763  -0.067391
    16  C    0.005213   0.000041  -0.000068   0.000157  -0.000383  -0.000942
    17  H   -0.000244  -0.000114  -0.000047   0.000707   0.003264   0.000393
    18  H    0.003266   0.000708  -0.000047  -0.000114  -0.000243   0.000390
    19  H    0.000073   0.003493  -0.031351   0.407843  -0.030916   0.004558
    20  H   -0.000013  -0.000000   0.000000  -0.000000  -0.000013   0.000177
    21  C    0.000087  -0.000002   0.000000  -0.000026   0.000166  -0.001051
    22  H    0.000004  -0.000001   0.000000  -0.000006  -0.000055   0.000223
    23  H   -0.000002   0.000000  -0.000000   0.000000   0.000003  -0.000005
    24  C    0.000166  -0.000026   0.000000  -0.000002   0.000087  -0.001052
    25  H   -0.000055  -0.000006   0.000000  -0.000001   0.000004   0.000223
    26  H    0.000003   0.000000  -0.000000   0.000000  -0.000002  -0.000005
    27  C   -0.000004   0.000001  -0.000000   0.000004  -0.000000  -0.000087
    28  H    0.000001  -0.000000   0.000000  -0.000000  -0.000002   0.000030
    29  H   -0.000010   0.000000  -0.000000   0.000001   0.000035   0.000003
    30  C   -0.000000   0.000004  -0.000000   0.000001  -0.000004  -0.000087
    31  H   -0.000002  -0.000000   0.000000  -0.000000   0.000001   0.000030
    32  H    0.000035   0.000001  -0.000000   0.000000  -0.000010   0.000003
    33  C    0.000000  -0.000000   0.000000  -0.000000   0.000001  -0.000004
    34  H    0.000000   0.000000  -0.000000   0.000000  -0.000000  -0.000000
    35  H    0.000000  -0.000000   0.000000  -0.000000  -0.000000   0.000001
    36  H   -0.000000   0.000000  -0.000000   0.000000   0.000000   0.000000
    37  C    0.000001  -0.000000   0.000000  -0.000000   0.000000  -0.000004
    38  H   -0.000000   0.000000  -0.000000   0.000000   0.000000  -0.000000
    39  H   -0.000000  -0.000000   0.000000  -0.000000   0.000000   0.000001
    40  H    0.000000   0.000000  -0.000000   0.000000  -0.000000   0.000000
               7          8          9         10         11         12
     1  C    0.004267   0.005204  -0.030922   0.394430  -0.000413  -0.000383
     2  C   -0.035105  -0.000195   0.407865  -0.022822  -0.000013   0.000156
     3  C    0.410554   0.002530  -0.031356   0.002531   0.000008  -0.000068
     4  C   -0.035101  -0.022830   0.003492  -0.000195  -0.000013   0.000041
     5  C    0.004268   0.394444   0.000072   0.005204  -0.000414   0.005217
     6  C    0.000897  -0.035937   0.004562  -0.035937   0.007126  -0.000953
     7  H    0.518065  -0.000292  -0.004072  -0.000292  -0.000000  -0.000000
     8  H   -0.000292   0.490626   0.000067  -0.000242  -0.000260   0.001830
     9  H   -0.004072   0.000067   0.510551  -0.003456  -0.000001   0.000002
    10  H   -0.000292  -0.000242  -0.003456   0.490623  -0.000259   0.000038
    11  C   -0.000000  -0.000260  -0.000001  -0.000259   5.279060   0.442690
    12  C   -0.000000   0.001830   0.000002   0.000038   0.442690   4.946446
    13  C   -0.000008   0.002772   0.000026  -0.000035  -0.045237   0.421516
    14  C    0.000128   0.004516  -0.000034   0.004514  -0.065584  -0.017274
    15  C   -0.000008  -0.000037   0.000044   0.002777  -0.045266  -0.065876
    16  C   -0.000000   0.000039   0.000005   0.001827   0.442671  -0.015642
    17  H   -0.000000  -0.002243   0.000001   0.000027   0.005340  -0.014103
    18  H   -0.000000   0.000027   0.000048  -0.002241   0.005344  -0.000696
    19  H   -0.004074  -0.003454  -0.000286   0.000067  -0.000001   0.000005
    20  H    0.000000  -0.000002  -0.000000  -0.000002   0.385041  -0.031700
    21  C    0.000000   0.000208   0.000000   0.000010  -0.072858   0.236815
    22  H   -0.000000   0.000055   0.000000  -0.000000   0.005150  -0.048142
    23  H   -0.000000  -0.000007  -0.000000  -0.000000   0.000122  -0.051211
    24  C    0.000000   0.000010   0.000001   0.000208  -0.072831   0.012034
    25  H   -0.000000  -0.000000  -0.000000   0.000055   0.005154  -0.000630
    26  H   -0.000000  -0.000000  -0.000000  -0.000007   0.000141  -0.000846
    27  C   -0.000000   0.000008  -0.000000   0.000000  -0.015462  -0.013198
    28  H    0.000000  -0.000000   0.000000  -0.000000  -0.007700   0.005612
    29  H   -0.000000   0.000002   0.000000  -0.000001   0.006522   0.005223
    30  C   -0.000000   0.000000  -0.000000   0.000008  -0.015478   0.001871
    31  H    0.000000  -0.000000   0.000000  -0.000000  -0.007690   0.000754
    32  H   -0.000000  -0.000001   0.000000   0.000002   0.006521  -0.000478
    33  C    0.000000  -0.000000   0.000000  -0.000000   0.000460   0.008901
    34  H   -0.000000   0.000000  -0.000000   0.000000  -0.000043  -0.000966
    35  H    0.000000  -0.000000  -0.000000   0.000000  -0.000241  -0.000442
    36  H   -0.000000   0.000000   0.000000  -0.000000   0.000517  -0.000412
    37  C    0.000000  -0.000000   0.000000  -0.000000   0.000461  -0.000075
    38  H   -0.000000   0.000000  -0.000000   0.000000  -0.000043  -0.000000
    39  H    0.000000   0.000000   0.000000  -0.000000  -0.000240   0.000018
    40  H   -0.000000  -0.000000  -0.000000   0.000000   0.000517  -0.000041
              13         14         15         16         17         18
     1  C    0.008768  -0.077876  -0.005536   0.005213  -0.000244   0.003266
     2  C   -0.000679   0.007217   0.000372   0.000041  -0.000114   0.000708
     3  C    0.000188  -0.003646   0.000186  -0.000068  -0.000047  -0.000047
     4  C    0.000366   0.007222  -0.000679   0.000157   0.000707  -0.000114
     5  C   -0.005532  -0.077875   0.008763  -0.000383   0.003264  -0.000243
     6  C   -0.067397   0.265688  -0.067391  -0.000942   0.000393   0.000390
     7  H   -0.000008   0.000128  -0.000008  -0.000000  -0.000000  -0.000000
     8  H    0.002772   0.004516  -0.000037   0.000039  -0.002243   0.000027
     9  H    0.000026  -0.000034   0.000044   0.000005   0.000001   0.000048
    10  H   -0.000035   0.004514   0.002777   0.001827   0.000027  -0.002241
    11  C   -0.045237  -0.065584  -0.045266   0.442671   0.005340   0.005344
    12  C    0.421516  -0.017274  -0.065876  -0.015642  -0.014103  -0.000696
    13  C    5.314487   0.431609  -0.015477  -0.065878   0.365891   0.006685
    14  C    0.431609   5.000247   0.431614  -0.017272  -0.023404  -0.023410
    15  C   -0.015477   0.431614   5.314491   0.421574   0.006683   0.365903
    16  C   -0.065878  -0.017272   0.421574   4.946453  -0.000695  -0.014134
    17  H    0.365891  -0.023404   0.006683  -0.000695   0.483618  -0.000246
    18  H    0.006685  -0.023410   0.365903  -0.014134  -0.000246   0.483632
    19  H    0.000044  -0.000034   0.000026   0.000002   0.000048   0.000001
    20  H    0.010485  -0.002420   0.010485  -0.031699  -0.000275  -0.000275
    21  C   -0.076413   0.012480  -0.000455   0.012013   0.002221   0.000007
    22  H   -0.001695  -0.000920   0.000227  -0.000626   0.000707  -0.000001
    23  H    0.006437  -0.000899   0.000656  -0.000853   0.000580   0.000002
    24  C   -0.000458   0.012471  -0.076451   0.236764   0.000007   0.002233
    25  H    0.000230  -0.000931  -0.001705  -0.048102  -0.000001   0.000709
    26  H    0.000655  -0.000896   0.006440  -0.051259   0.000002   0.000579
    27  C   -0.014641   0.002724  -0.001224   0.001875  -0.003221  -0.000006
    28  H    0.006174  -0.000474  -0.000015   0.000758   0.000138  -0.000001
    29  H   -0.008343   0.000840   0.000167  -0.000479   0.001239  -0.000000
    30  C   -0.001226   0.002735  -0.014648  -0.013186  -0.000006  -0.003225
    31  H   -0.000014  -0.000476   0.006179   0.005621  -0.000001   0.000139
    32  H    0.000166   0.000844  -0.008352   0.005216  -0.000000   0.001238
    33  C    0.000474  -0.000098   0.000040  -0.000075  -0.000002   0.000000
    34  H   -0.000037  -0.000001  -0.000001  -0.000000  -0.000002  -0.000000
    35  H    0.000508  -0.000050  -0.000000   0.000018   0.000047  -0.000000
    36  H   -0.000255   0.000021   0.000001  -0.000041   0.000004  -0.000000
    37  C    0.000040  -0.000098   0.000475   0.008901   0.000000  -0.000001
    38  H   -0.000001  -0.000001  -0.000037  -0.000966  -0.000000  -0.000002
    39  H   -0.000000  -0.000050   0.000509  -0.000443  -0.000000   0.000047
    40  H    0.000001   0.000021  -0.000255  -0.000411  -0.000000   0.000004
              19         20         21         22         23         24
     1  C    0.000073  -0.000013   0.000087   0.000004  -0.000002   0.000166
     2  C    0.003493  -0.000000  -0.000002  -0.000001   0.000000  -0.000026
     3  C   -0.031351   0.000000   0.000000   0.000000  -0.000000   0.000000
     4  C    0.407843  -0.000000  -0.000026  -0.000006   0.000000  -0.000002
     5  C   -0.030916  -0.000013   0.000166  -0.000055   0.000003   0.000087
     6  C    0.004558   0.000177  -0.001051   0.000223  -0.000005  -0.001052
     7  H   -0.004074   0.000000   0.000000  -0.000000  -0.000000   0.000000
     8  H   -0.003454  -0.000002   0.000208   0.000055  -0.000007   0.000010
     9  H   -0.000286  -0.000000   0.000000   0.000000  -0.000000   0.000001
    10  H    0.000067  -0.000002   0.000010  -0.000000  -0.000000   0.000208
    11  C   -0.000001   0.385041  -0.072858   0.005150   0.000122  -0.072831
    12  C    0.000005  -0.031700   0.236815  -0.048142  -0.051211   0.012034
    13  C    0.000044   0.010485  -0.076413  -0.001695   0.006437  -0.000458
    14  C   -0.000034  -0.002420   0.012480  -0.000920  -0.000899   0.012471
    15  C    0.000026   0.010485  -0.000455   0.000227   0.000656  -0.076451
    16  C    0.000002  -0.031699   0.012013  -0.000626  -0.000853   0.236764
    17  H    0.000048  -0.000275   0.002221   0.000707   0.000580   0.000007
    18  H    0.000001  -0.000275   0.000007  -0.000001   0.000002   0.002233
    19  H    0.510555  -0.000000   0.000001  -0.000000  -0.000000   0.000000
    20  H   -0.000000   0.505223  -0.001154   0.000385   0.001221  -0.001160
    21  C    0.000001  -0.001154   5.417622   0.436125   0.435147  -0.000091
    22  H   -0.000000   0.000385   0.436125   0.515765  -0.020062   0.000008
    23  H   -0.000000   0.001221   0.435147  -0.020062   0.516365  -0.000078
    24  C    0.000000  -0.001160  -0.000091   0.000008  -0.000078   5.417724
    25  H    0.000000   0.000387   0.000008  -0.000001   0.000001   0.436104
    26  H   -0.000000   0.001222  -0.000077   0.000001   0.000028   0.435155
    27  C   -0.000000  -0.001830   0.187353  -0.050589  -0.049948   0.000037
    28  H    0.000000   0.000963  -0.050911   0.005180  -0.000917  -0.000012
    29  H    0.000000   0.000097  -0.050784  -0.000766   0.005058   0.000004
    30  C   -0.000000  -0.001831   0.000037  -0.000001  -0.000007   0.187360
    31  H    0.000000   0.000965  -0.000012  -0.000002   0.000016  -0.050928
    32  H    0.000000   0.000097   0.000005   0.000000   0.000001  -0.050787
    33  C    0.000000  -0.000052  -0.042071  -0.002736  -0.002650  -0.000004
    34  H   -0.000000  -0.000000   0.012806  -0.000202  -0.000208   0.000000
    35  H    0.000000   0.000005  -0.004566   0.001099   0.000977  -0.000000
    36  H   -0.000000   0.000036  -0.005011   0.000978   0.001119  -0.000000
    37  C    0.000000  -0.000052  -0.000004   0.000000   0.000001  -0.042071
    38  H   -0.000000  -0.000000   0.000000  -0.000000  -0.000000   0.012809
    39  H   -0.000000   0.000005  -0.000000  -0.000000   0.000000  -0.004566
    40  H    0.000000   0.000036  -0.000000   0.000000  -0.000000  -0.005015
              25         26         27         28         29         30
     1  C   -0.000055   0.000003  -0.000004   0.000001  -0.000010  -0.000000
     2  C   -0.000006   0.000000   0.000001  -0.000000   0.000000   0.000004
     3  C    0.000000  -0.000000  -0.000000   0.000000  -0.000000  -0.000000
     4  C   -0.000001   0.000000   0.000004  -0.000000   0.000001   0.000001
     5  C    0.000004  -0.000002  -0.000000  -0.000002   0.000035  -0.000004
     6  C    0.000223  -0.000005  -0.000087   0.000030   0.000003  -0.000087
     7  H   -0.000000  -0.000000  -0.000000   0.000000  -0.000000  -0.000000
     8  H   -0.000000  -0.000000   0.000008  -0.000000   0.000002   0.000000
     9  H   -0.000000  -0.000000  -0.000000   0.000000   0.000000  -0.000000
    10  H    0.000055  -0.000007   0.000000  -0.000000  -0.000001   0.000008
    11  C    0.005154   0.000141  -0.015462  -0.007700   0.006522  -0.015478
    12  C   -0.000630  -0.000846  -0.013198   0.005612   0.005223   0.001871
    13  C    0.000230   0.000655  -0.014641   0.006174  -0.008343  -0.001226
    14  C   -0.000931  -0.000896   0.002724  -0.000474   0.000840   0.002735
    15  C   -0.001705   0.006440  -0.001224  -0.000015   0.000167  -0.014648
    16  C   -0.048102  -0.051259   0.001875   0.000758  -0.000479  -0.013186
    17  H   -0.000001   0.000002  -0.003221   0.000138   0.001239  -0.000006
    18  H    0.000709   0.000579  -0.000006  -0.000001  -0.000000  -0.003225
    19  H    0.000000  -0.000000  -0.000000   0.000000   0.000000  -0.000000
    20  H    0.000387   0.001222  -0.001830   0.000963   0.000097  -0.001831
    21  C    0.000008  -0.000077   0.187353  -0.050911  -0.050784   0.000037
    22  H   -0.000001   0.000001  -0.050589   0.005180  -0.000766  -0.000001
    23  H    0.000001   0.000028  -0.049948  -0.000917   0.005058  -0.000007
    24  C    0.436104   0.435155   0.000037  -0.000012   0.000004   0.187360
    25  H    0.515777  -0.020070  -0.000001  -0.000002   0.000000  -0.050632
    26  H   -0.020070   0.516359  -0.000007   0.000016   0.000001  -0.049897
    27  C   -0.000001  -0.000007   5.220218   0.424967   0.426856   0.000011
    28  H   -0.000002   0.000016   0.424967   0.541635  -0.022171   0.000000
    29  H    0.000000   0.000001   0.426856  -0.022171   0.536876  -0.000001
    30  C   -0.050632  -0.049897   0.000011   0.000000  -0.000001   5.220200
    31  H    0.005185  -0.000921   0.000000  -0.000000   0.000000   0.424938
    32  H   -0.000765   0.005053  -0.000001   0.000000  -0.000000   0.426902
    33  C    0.000000   0.000001   0.248425  -0.041921  -0.041876  -0.000000
    34  H   -0.000000  -0.000000  -0.051312  -0.004311  -0.004320   0.000000
    35  H   -0.000000   0.000000  -0.042311   0.006815  -0.003885  -0.000000
    36  H    0.000000  -0.000000  -0.041409  -0.003957   0.006772   0.000000
    37  C   -0.002734  -0.002650  -0.000000   0.000000   0.000000   0.248421
    38  H   -0.000203  -0.000207   0.000000  -0.000000  -0.000000  -0.051317
    39  H    0.001101   0.000977  -0.000000  -0.000000   0.000000  -0.042324
    40  H    0.000978   0.001116   0.000000   0.000000  -0.000000  -0.041385
              31         32         33         34         35         36
     1  C   -0.000002   0.000035   0.000000   0.000000   0.000000  -0.000000
     2  C   -0.000000   0.000001  -0.000000   0.000000  -0.000000   0.000000
     3  C    0.000000  -0.000000   0.000000  -0.000000   0.000000  -0.000000
     4  C   -0.000000   0.000000  -0.000000   0.000000  -0.000000   0.000000
     5  C    0.000001  -0.000010   0.000001  -0.000000  -0.000000   0.000000
     6  C    0.000030   0.000003  -0.000004  -0.000000   0.000001   0.000000
     7  H    0.000000  -0.000000   0.000000  -0.000000   0.000000  -0.000000
     8  H   -0.000000  -0.000001  -0.000000   0.000000  -0.000000   0.000000
     9  H    0.000000   0.000000   0.000000  -0.000000  -0.000000   0.000000
    10  H   -0.000000   0.000002  -0.000000   0.000000   0.000000  -0.000000
    11  C   -0.007690   0.006521   0.000460  -0.000043  -0.000241   0.000517
    12  C    0.000754  -0.000478   0.008901  -0.000966  -0.000442  -0.000412
    13  C   -0.000014   0.000166   0.000474  -0.000037   0.000508  -0.000255
    14  C   -0.000476   0.000844  -0.000098  -0.000001  -0.000050   0.000021
    15  C    0.006179  -0.008352   0.000040  -0.000001  -0.000000   0.000001
    16  C    0.005621   0.005216  -0.000075  -0.000000   0.000018  -0.000041
    17  H   -0.000001  -0.000000  -0.000002  -0.000002   0.000047   0.000004
    18  H    0.000139   0.001238   0.000000  -0.000000  -0.000000  -0.000000
    19  H    0.000000   0.000000   0.000000  -0.000000   0.000000  -0.000000
    20  H    0.000965   0.000097  -0.000052  -0.000000   0.000005   0.000036
    21  C   -0.000012   0.000005  -0.042071   0.012806  -0.004566  -0.005011
    22  H   -0.000002   0.000000  -0.002736  -0.000202   0.001099   0.000978
    23  H    0.000016   0.000001  -0.002650  -0.000208   0.000977   0.001119
    24  C   -0.050928  -0.050787  -0.000004   0.000000  -0.000000  -0.000000
    25  H    0.005185  -0.000765   0.000000  -0.000000  -0.000000   0.000000
    26  H   -0.000921   0.005053   0.000001  -0.000000   0.000000  -0.000000
    27  C    0.000000  -0.000001   0.248425  -0.051312  -0.042311  -0.041409
    28  H   -0.000000   0.000000  -0.041921  -0.004311   0.006815  -0.003957
    29  H    0.000000  -0.000000  -0.041876  -0.004320  -0.003885   0.006772
    30  C    0.424938   0.426902  -0.000000   0.000000  -0.000000   0.000000
    31  H    0.541680  -0.022178   0.000000  -0.000000  -0.000000   0.000000
    32  H   -0.022178   0.536819   0.000000  -0.000000   0.000000  -0.000000
    33  C    0.000000   0.000000   5.051006   0.422573   0.414452   0.413661
    34  H   -0.000000  -0.000000   0.422573   0.533360  -0.024913  -0.025034
    35  H   -0.000000   0.000000   0.414452  -0.024913   0.545798  -0.030483
    36  H    0.000000  -0.000000   0.413661  -0.025034  -0.030483   0.546971
    37  C   -0.041924  -0.041861   0.000000   0.000000   0.000000  -0.000000
    38  H   -0.004313  -0.004319   0.000000  -0.000000  -0.000000   0.000000
    39  H    0.006817  -0.003885   0.000000  -0.000000  -0.000000   0.000000
    40  H   -0.003956   0.006767  -0.000000   0.000000   0.000000  -0.000000
              37         38         39         40
     1  C    0.000001  -0.000000  -0.000000   0.000000
     2  C   -0.000000   0.000000  -0.000000   0.000000
     3  C    0.000000  -0.000000   0.000000  -0.000000
     4  C   -0.000000   0.000000  -0.000000   0.000000
     5  C    0.000000   0.000000   0.000000  -0.000000
     6  C   -0.000004  -0.000000   0.000001   0.000000
     7  H    0.000000  -0.000000   0.000000  -0.000000
     8  H   -0.000000   0.000000   0.000000  -0.000000
     9  H    0.000000  -0.000000   0.000000  -0.000000
    10  H   -0.000000   0.000000  -0.000000   0.000000
    11  C    0.000461  -0.000043  -0.000240   0.000517
    12  C   -0.000075  -0.000000   0.000018  -0.000041
[...]
 0.00000182,-0.00000489,-0.00000201,-0.00000028,0.00000156,0.00000839,0
 .00001671,-0.00000758,0.00081919,0.00100001,0.00022455,0.00004866,-0.0
 0003122,-0.00008827,-0.00027714,0.00042078,-0.00009218,-0.00002127,0.0
 0001508,-0.00000556,0.00000414,-0.00000065,-0.00000502,0.00000872,-0.0
 0000123,-0.00000077,-0.00271964,-0.00339338,-0.00074937,0.00003020,-0.
 00016505,-0.00016475,0.00043724,0.00093406,-0.00077836,0.00000874,-0.0
 0001224,-0.00000468,-0.00000341,-0.00000030,0.00000092,0.00000223,-0.0
 0000228,0.00000279,-0.12890078,-0.15297783,-0.01739146,-0.02248319,-0.
 01704739,-0.00341029,0.01010390,0.00834265,0.00210257,0.14271268,0.162
 88549,0.00000548,0.00000500,0.00000139,-0.00000108,0.00000277,0.000001
 62,-0.00000044,-0.00000163,-0.00000108,0.00000306,0.00000055,0.0000003
 4,-0.00000171,-0.00000179,-0.00000656,-0.00000051,0.00000199,0.0000122
 7,-0.00000077,-0.00000014,-0.00000032,0.00000189,-0.00000206,-0.000000
 15,0.00000002,-0.00000039,0.00000019,-0.00000032,-0.00000087,0.0000031
 9,-0.00009614,0.00002533,0.00013450,0.00044954,-0.00002550,-0.00005706
 ,-0.00005931,0.00010358,0.00001997,0.00004824,0.00008187,0.00016780,0.
 00012540,0.00000653,-0.00003003,-0.00006855,-0.00003729,-0.00008741,0.
 00006862,-0.00006620,-0.00000546,0.00000848,-0.00000260,-0.00000065,-0
 .00000139,0.00000026,-0.00000002,0.00002790,0.00000973,-0.00003493,-0.
 00023341,-0.00148323,0.00176782,0.00004373,0.00015349,-0.00004138,0.00
 035960,0.00087857,-0.00020635,-0.00000998,0.00000770,0.00000077,0.0000
 0336,0.00000084,0.00000441,0.00000771,-0.00000469,-0.00000435,-0.02728
 149,-0.02141947,-0.00437712,0.00063095,-0.00002057,0.00143580,-0.00141
 345,-0.00028603,-0.00649323,0.00000454,-0.00000812,-0.00000647,-0.0000
 0107,0.00000523,0.00000086,0.00000191,-0.00000188,0.00000330,-0.020503
 99,-0.01681404,-0.04904380,0.01099898,0.00735827,0.00065847,0.01174059
 ,0.01125074,0.00111905,0.02514078,0.02027966,0.05506564,0.00000588,0.0
 0000694,0.00001034,0.00000507,-0.00000330,-0.00000071,0.00001090,0.000
 00421,0.00000619,-0.00000203,0.00000249,-0.00000196,0.00002710,-0.0000
 0441,0.00000824,-0.00003374,-0.00001485,-0.00002511,0.00000262,0.00000
 065,0.00000082,-0.00000678,0.00000479,0.00000085,0.00000170,0.00000248
 ,0.00000183,-0.00000325,-0.00000302,-0.00000262,0.00029012,-0.00005903
 ,-0.00059267,-0.00050983,-0.00000737,0.00024730,0.00033719,0.00007820,
 0.00019377,0.00017090,-0.00014248,-0.00029408,0.00004624,-0.00013432,0
 .00014774,0.00005914,0.00010423,0.00047657,0.00000881,0.00001018,0.000
 00352,-0.00000767,0.00016190,0.00003450,0.00000383,-0.00000037,-0.0000
 0113,0.00003343,-0.00009632,0.00005787,-0.00001154,0.00004191,0.000002
 13,0.00000521,-0.00000008,-0.00000495,0.00000398,-0.00000205,0.0000080
 9,-0.00344705,-0.00295774,0.00381871,0.00009484,0.00068368,-0.00022644
 ,0.00121302,0.00116144,-0.00103311,0.00001671,-0.00002154,-0.00001303,
 0.00000241,-0.00000214,0.00000527,-0.00000289,0.00000322,-0.00000023,-
 0.14471414,-0.00743465,0.06197312,0.00428033,0.00105010,-0.00404397,-0
 .02116802,-0.00389548,0.02319276,0.00000126,0.00001460,0.00000110,-0.0
 0000134,0.00000423,-0.00000935,-0.00000159,-0.00000138,-0.00000053,-0.
 00000072,-0.00000602,-0.00000139,0.52448016,-0.00004423,-0.00001773,-0
 .00002282,-0.00000312,0.00001619,-0.00000050,-0.00003642,-0.00000674,-
 0.00001244,-0.00000074,0.00000559,-0.00001266,-0.00006679,-0.00000809,
 -0.00002915,0.00008790,0.00001596,0.00011529,-0.00000844,-0.00000419,0
 .00000100,0.00001752,-0.00002308,0.00000688,-0.00001116,-0.00001101,-0
 .00000487,0.00000856,0.00001081,0.00002672,-0.00081600,0.00021818,0.00
 038759,-0.00010007,0.00045370,0.00003907,-0.00019795,-0.00002254,0.000
 33638,-0.00005877,0.00035733,-0.00025623,-0.00073209,0.00020936,0.0008
 0754,0.00111560,-0.00604814,0.00082121,0.00000906,-0.00005301,0.000017
 73,-0.00002691,-0.00025700,-0.00009464,-0.00001330,-0.00000077,0.00000
 253,0.00020494,-0.00026840,0.00014713,-0.00009175,-0.00005681,-0.00000
 135,-0.00000491,-0.00001013,0.00004160,0.00003458,0.00000078,0.0000157
 7,-0.02592093,-0.00632504,0.02594842,-0.00034038,0.00138966,0.00039938
 ,-0.00044997,0.00141979,-0.00029416,0.00000417,0.00002642,0.00001951,-
 0.00000683,0.00000528,-0.00000364,0.00000345,0.00001655,-0.00000565,-0
 .00512954,-0.07919688,0.00444024,0.01509335,0.00276983,-0.01299547,0.0
 0587411,0.00083364,-0.00687559,-0.00000222,-0.00002402,-0.00000350,0.0
 0000546,-0.00000668,0.00001690,-0.00000234,0.00000394,0.00000327,0.000
 00676,0.00000821,0.00000515,-0.00468946,0.58111720,-0.00001776,0.00000
 524,0.00000902,0.00000731,0.00000440,0.00000026,-0.00000334,0.00000244
 ,0.00000196,0.00000151,-0.00000319,-0.00000770,0.00002210,-0.00000430,
 0.00000142,0.00000492,-0.00003703,-0.00001442,-0.00000066,-0.00000051,
 0.00000076,-0.00000038,0.00000108,-0.00000186,-0.00000354,-0.00000206,
 -0.00000070,0.00000181,0.00000111,0.00000721,0.00036279,0.00012368,-0.
 00017056,-0.00039652,-0.00001564,0.00011676,0.00026363,0.00010611,0.00
 029244,0.00033890,-0.00016966,-0.00044184,-0.00044273,-0.00011195,0.00
 001842,0.00022120,0.00173750,-0.00007210,0.00000577,0.00001105,0.00000
 779,0.00003537,0.00020485,0.00003954,0.00000089,0.00000007,-0.00000053
 ,0.00003258,-0.00008516,0.00001320,0.00000012,-0.00000538,-0.00000206,
 0.00000277,0.00000068,-0.00000475,0.00000504,0.00000179,0.00000701,0.0
 1014008,0.00441178,-0.01091505,-0.00072717,-0.00138326,0.00138043,0.00
 020107,-0.00097060,0.00026170,0.00001231,-0.00000047,-0.00000067,0.000
 00087,-0.00000145,0.00000164,-0.00000193,0.00000440,-0.00000146,0.0613
 2115,0.00661981,-0.13974696,0.02068311,0.00407612,-0.01857031,-0.00806
 994,-0.00166404,0.00885124,0.00000125,0.00000140,-0.00000020,0.0000005
 7,0.00000073,-0.00000060,-0.00000121,0.00000038,0.00000027,0.00000048,
 -0.00000151,0.00000028,0.04525464,0.00164525,0.52876118,-0.00001871,-0
 .00000947,-0.00000876,-0.00000096,0.00000722,0.00000034,-0.00001750,-0
 .00000204,-0.00000646,-0.00000006,0.00000025,-0.00000393,-0.00002586,-
 0.00000094,-0.00001310,0.00004671,0.00001282,0.00003097,-0.00000418,-0
 .00000218,0.00000053,0.00000831,-0.00000846,0.00000270,-0.00000395,-0.
 00000483,-0.00000208,0.00000422,0.00000684,0.00000878,-0.00027581,0.00
 001571,0.00015708,0.00000966,0.00011319,-0.00001894,-0.00008500,-0.000
 00475,0.00008730,0.00002599,0.00009383,-0.00003081,-0.00012694,0.00002
 433,0.00010963,0.00072934,-0.00126600,0.00030129,-0.00000125,-0.000014
 36,0.00000795,0.00001093,-0.00005947,-0.00002318,-0.00000627,-0.000000
 71,0.00000226,0.00003172,-0.00004339,0.00001954,-0.00002264,-0.0000197
 9,-0.00000367,-0.00000337,-0.00000311,0.00001603,0.00000884,0.00000038
 ,0.00000242,-0.00368975,0.00061011,0.00343434,-0.00006089,0.00039679,-
 0.00009672,0.00025980,-0.00012629,0.00027456,-0.00000212,0.00001572,0.
 00000873,-0.00000200,0.00000276,-0.00000196,0.00000074,0.00000367,-0.0
 0000182,-0.00146183,-0.02420311,0.00657739,0.00090477,0.00052453,-0.00
 045125,0.00053765,-0.00008641,-0.00098708,0.00000098,-0.00001100,-0.00
 000137,0.00000230,-0.00000347,0.00000815,-0.00000132,0.00000179,0.0000
 0129,0.00000183,0.00000332,0.00000124,-0.04755545,-0.01458269,0.004411
 50,0.04959544,-0.00001407,-0.00001182,-0.00000731,-0.00000019,0.000008
 37,0.00000322,-0.00001631,-0.00000151,-0.00000511,-0.00000034,-0.00000
 067,-0.00000103,-0.00002455,-0.00000484,-0.00001476,0.00003797,0.00001
 674,0.00003364,-0.00000517,-0.00000165,-0.00000013,0.00000756,-0.00000
 430,0.00000113,-0.00000203,-0.00000423,-0.00000252,0.00000524,0.000009
 17,0.00000588,-0.00017945,-0.00004994,0.00006258,0.00001636,0.00001729
 ,0.00000621,-0.00002820,0.00000432,0.00003093,0.00000344,-0.00000176,-
 0.00002064,-0.00004963,-0.00002347,0.00013443,0.00031238,-0.00007974,-
 0.00008389,-0.00000808,-0.00000405,0.00001094,0.00002540,-0.00000457,-
 0.00000846,-0.00000684,0.00000027,0.00000222,0.00000973,-0.00000544,-0
 .00001765,-0.00002212,-0.00002043,-0.00000356,-0.00000542,0.00000050,0
 .00001690,0.00000775,0.00000014,0.00000108,-0.00083032,0.00123745,0.00
 048120,0.00018977,0.00035951,-0.00002872,0.00003405,0.00013000,-0.0001
 8552,0.00000398,0.00001792,0.00000526,-0.00000442,0.00000364,-0.000001
 83,0.00000004,0.00000246,-0.00000128,0.00038008,-0.00079206,-0.0005837
 8,-0.00019297,0.00043525,0.00042474,-0.00049259,0.00019799,0.00006097,
 -0.00000048,-0.00001144,-0.00000123,0.00000314,-0.00000383,0.00000786,
 -0.00000303,0.00000276,0.00000283,0.00000286,0.00000301,0.00000016,-0.
 01541665,-0.29081517,0.08130541,0.01712459,0.31345734,0.00002304,0.000
 00926,0.00000614,-0.00000043,-0.00000709,-0.00000278,0.00001822,0.0000
 0313,0.00000534,-0.00000075,0.00000069,0.00000315,0.00003162,0.0000064
 8,0.00001695,-0.00004594,-0.00001671,-0.00004667,0.00000455,0.00000147
 ,0.00000060,-0.00000934,0.00000797,-0.00000117,0.00000447,0.00000383,0
 .00000344,-0.00000405,-0.00000897,-0.00000927,0.00015839,-0.00001572,-
 0.00009889,-0.00000826,-0.00009034,0.00006004,0.00009376,0.00000614,-0
 .00008239,0.00002068,-0.00009253,0.00004649,0.00020693,-0.00002367,-0.
 00028629,-0.00014297,0.00139301,0.00040742,0.00000395,0.00001418,-0.00
 001001,-0.00000606,0.00004971,0.00001513,0.00000755,-0.00000017,-0.000
 00136,-0.00004375,0.00004812,-0.00000510,0.00002455,0.00003125,0.00000
 889,0.00000551,0.00000216,-0.00001738,-0.00001476,-0.00000037,-0.00000
 616,0.00382126,-0.00087766,-0.00318735,0.00015225,0.00022208,0.0002265
 5,0.00003789,-0.00047910,0.00013372,-0.00000300,-0.00001973,-0.0000104
 5,0.00000436,-0.00000427,0.00000256,-0.00000101,-0.00000647,0.00000235
 ,-0.00017306,0.02242684,-0.00753014,-0.00090949,-0.00011979,0.00031369
 ,-0.00021341,-0.00045691,0.00092902,0.00000160,0.00001435,0.00000185,-
 0.00000322,0.00000346,-0.00000970,0.00000234,-0.00000228,-0.00000277,-
 0.00000424,-0.00000415,-0.00000166,0.00461549,0.08056311,-0.07363725,-
 0.00797431,-0.08941630,0.07817688,-0.00000369,0.00000548,-0.00000410,-
 0.00000230,0.00000080,-0.00000499,-0.00000340,-0.00000093,-0.00000272,
 0.00000233,-0.00000140,0.00000063,-0.00000552,0.00000272,-0.00000019,0
 .00001223,0.00000677,0.00000207,0.00000017,-0.00000090,0.00000026,0.00
 000200,-0.00000119,-0.00000137,-0.00000135,-0.00000248,0.00000097,0.00
 000117,-0.00000673,0.00000398,-0.00001244,-0.00007678,0.00004176,0.000
 11241,-0.00004023,-0.00007976,-0.00006507,-0.00001256,-0.00006931,-0.0
 0004495,0.00000747,0.00007814,0.00012849,0.00001782,0.00000599,-0.0001
 5883,0.00014315,-0.00018991,-0.00000348,-0.00000030,-0.00000439,-0.000
 02659,-0.00002380,-0.00000488,-0.00000022,-0.00000059,0.00000039,-0.00
 003901,0.00004334,-0.00003080,0.00000612,0.00000040,-0.00000323,-0.000
 00061,0.00000129,-0.00000096,-0.00000328,0.00000107,-0.00000290,0.0008
 5817,0.00114913,-0.00043086,0.00005600,-0.00045981,-0.00034683,-0.0000
 5829,-0.00016433,-0.00009054,-0.00000281,0.00000232,-0.00000084,-0.000
 00113,-0.00000063,-0.00000077,0.00000127,-0.00000152,0.00000039,0.0049
 6452,0.01513199,0.02108571,-0.00316815,-0.00086885,0.00398360,0.000972
 79,0.00048820,-0.00079337,-0.00000132,-0.00000215,-0.00000035,0.000000
 08,-0.00000013,0.00000064,0.00000043,0.00000030,0.00000031,0.00000031,
 0.00000109,0.00000037,-0.05783285,-0.03181806,-0.04371930,-0.00151256,
 -0.00039331,-0.00093471,0.06118605,0.00001093,0.00000330,0.00000628,0.
 00000065,-0.00000625,0.00000136,0.00001077,0.00000079,0.00000438,-0.00
 000056,0.00000084,0.00000222,0.00001197,0.00000034,0.00000585,-0.00002
 477,-0.00000594,-0.00001646,0.00000289,0.00000155,-0.00000074,-0.00000
 453,0.00000338,0.00000022,0.00000284,0.00000472,0.00000069,-0.00000463
 ,-0.00000107,-0.00000693,-0.00002805,-0.00005743,0.00004952,0.00005836
 ,-0.00001253,0.00000087,-0.00001158,-0.00001263,-0.00005551,-0.0000313
 0,-0.00000105,0.00006477,0.00010006,-0.00001341,-0.00010177,-0.0000704
 4,0.00005812,0.00017765,0.00000128,0.00000353,-0.00000474,-0.00000388,
 0.00001393,0.00000077,0.00000281,0.00000026,-0.00000129,-0.00000547,0.
 00000640,0.00000217,-0.00000076,0.00001087,0.00000167,0.00000272,0.000
 00055,-0.00000326,0.00000009,0.00000018,0.00000248,0.00033425,0.001268
 07,0.00080277,-0.00015077,0.00027882,-0.00031041,0.00009537,-0.0000460
 2,-0.00001376,-0.00000089,-0.00000674,-0.00000150,0.00000082,-0.000001
 61,0.00000016,0.00000079,-0.00000003,0.00000018,0.00119977,0.00108206,
 0.00289640,-0.00030721,0.00081806,0.00102074,0.00034742,-0.00006133,-0
 .00033706,-0.00000155,0.00000396,0.00000047,-0.00000144,0.00000260,-0.
 00000367,0.00000131,-0.00000161,-0.00000086,0.00000008,-0.00000102,0.0
 0000038,-0.03138494,-0.13904345,-0.12256062,-0.00652659,-0.01692406,-0
 .02469961,0.03499397,0.14722267,0.00002129,-0.00000700,-0.00000148,-0.
 00000098,-0.00000109,0.00000399,0.00000829,0.00000250,0.00000370,-0.00
 000468,0.00000578,0.00000095,0.00001091,0.00000027,0.00000174,-0.00002
 977,-0.00000926,-0.00000574,0.00000092,0.00000073,0.00000063,-0.000005
 38,0.00000215,0.00000538,0.00000481,0.00000336,0.00000147,-0.00000157,
 0.00000314,-0.00000574,-0.00015410,0.00006103,0.00001962,-0.00006459,0
 .00002244,0.00013075,0.00006383,0.00000951,0.00004906,0.00002126,-0.00
 001700,-0.00005247,-0.00008239,0.00001865,-0.00004538,0.00028189,0.000
 22864,0.00045033,0.00000560,-0.00000155,0.00000308,0.00003665,-0.00000
 164,-0.00000035,0.00000088,-0.00000012,0.00000010,0.00004099,-0.000054
 69,0.00005000,-0.00002496,-0.00000133,0.00000592,0.00000295,0.00000088
 ,0.00000314,0.00000758,0.00000243,0.00000771,-0.00109619,-0.00114543,0
 .00062173,0.00037602,0.00104329,-0.00003292,0.00000539,0.00002414,-0.0
 0008393,0.00000535,-0.00000707,0.00000068,-0.00000200,-0.00000323,0.00
 000031,0.00000268,0.00000375,-0.00000161,-0.00456852,-0.01356247,-0.01
 944575,0.00404205,0.00102176,-0.00194413,0.00004020,0.00013759,0.00103
 317,-0.00000221,0.00000297,0.,-0.00000090,0.00000310,-0.00000401,0.000
 00056,-0.00000112,0.00000001,0.00000176,-0.00000058,0.00000179,-0.0429
 3461,-0.12206367,-0.21082261,0.00245881,0.00617690,0.00928171,0.043527
 06,0.13488703,0.23036843,-0.00001019,-0.00000529,0.00000734,0.00000374
 ,0.00000054,0.00000618,-0.00000333,-0.00000040,0.00000139,0.00000241,-
 0.00000603,-0.00000144,0.00000175,-0.00000409,0.00000223,0.00001675,-0
 .00000315,-0.00000769,-0.00000207,0.00000078,-0.00000173,0.00000324,0.
 00000143,-0.00000561,-0.00000082,0.00000092,-0.00000328,0.00000042,0.0
 0000971,-0.00000230,-0.00006775,-0.00004855,-0.00006285,-0.00004878,0.
 00001083,-0.00000297,0.00003320,0.00002257,0.00006501,0.00013899,0.000
 00797,-0.00004473,0.00005474,-0.00007575,-0.00013345,0.00051627,0.0000
 0742,0.00032963,0.00000163,0.00000442,0.00000621,0.00002958,0.00007481
 ,0.00002218,-0.00000118,0.00000203,-0.00000070,0.00000195,0.00000651,0
 .00003833,-0.00000540,-0.00001994,-0.00000716,0.00000434,0.00000071,0.
 00000225,0.00000266,0.00000756,0.00000679,0.00069081,0.00078311,-0.001
 23237,-0.00006879,-0.00003549,0.00003942,0.00016929,-0.00099093,0.0006
 3841,-0.00000794,0.00001897,0.00001144,0.00000218,-0.00000408,-0.00000
 267,0.00000256,0.00000293,-0.00000210,-0.02250259,0.00635194,-0.008959
 38,0.00095858,0.00022335,0.00007662,-0.00199635,-0.00066668,0.00427260
 ,0.00000144,-0.00001145,-0.00000054,0.00000093,-0.00000250,0.00000695,
 0.00000166,0.00000067,-0.00000131,0.00000120,0.00000461,0.00000258,-0.
 25580194,0.06268964,-0.08994925,0.00269916,-0.00046819,0.00125435,-0.0
 0535669,0.00138019,-0.00199487,0.28053435,0.00000451,0.00000275,0.0000
 0227,0.00000012,-0.00000217,-0.00000194,0.00000448,0.00000107,0.000001
 00,-0.00000112,0.00000138,0.00000007,0.00000756,0.00000191,0.00000339,
 -0.00001228,-0.00000096,-0.00001175,0.00000148,0.00000001,0.00000058,-
 0.00000256,0.00000094,0.00000112,0.00000067,0.00000090,0.00000111,-0.0
 0000164,-0.00000247,-0.00000221,0.00010160,-0.00001868,-0.00006596,-0.
 00005619,-0.00001342,0.00002214,0.00004534,0.00000992,0.00001404,0.000
 02022,-0.00001186,-0.00003641,-0.00000971,-0.00005712,-0.00000476,-0.0
 0008239,-0.00004088,0.00010846,0.00000233,0.00000402,-0.00000224,-0.00
 000065,0.00001124,0.00000248,0.00000188,-0.00000070,-0.00000006,-0.000
 01003,0.00001793,-0.00000134,0.00001270,0.00001666,0.00000214,0.000001
 07,-0.00000161,-0.00000561,-0.00000539,-0.00000209,-0.00000318,-0.0009
 2817,0.00081629,-0.00074029,-0.00002274,-0.00004059,-0.00009837,0.0001
 1828,0.00015934,0.00027344,-0.00000308,-0.00000726,-0.00000314,0.00000
 337,-0.00000026,0.00000162,-0.00000158,-0.00000257,0.00000087,-0.00253
 765,-0.00024622,-0.00137143,0.00044439,-0.00010992,0.00001888,-0.00066
 635,0.00067249,0.00035452,0.00000305,0.00000609,0.00000076,-0.00000129
 ,0.00000087,-0.00000300,0.00000047,-0.00000108,-0.00000152,-0.00000252
 ,-0.00000229,-0.00000128,0.06294232,-0.06667954,0.02675159,0.02802122,
 -0.00713914,0.01153458,-0.01812063,0.00541123,-0.00678481,-0.06927109,
 0.06724578,0.00000075,-0.00000307,-0.00000051,-0.00000100,-0.00000085,
 0.00000189,0.00000038,-0.00000151,0.00000028,0.00000004,-0.00000021,0.
 00000117,-0.00000594,0.00000045,-0.00000087,0.00000064,-0.00000125,0.0
 0000617,-0.00000012,0.00000069,-0.00000080,0.00000036,-0.00000018,0.00
 000027,0.00000070,0.00000158,-0.00000105,-0.00000060,0.00000249,-0.000
 00274,-0.00003422,0.00002135,0.00014254,0.00009486,0.00000723,-0.00003
 974,-0.00007170,-0.00003071,-0.00006575,-0.00009548,0.00004723,0.00009
 582,0.00002624,0.00008226,-0.00003936,-0.00005662,-0.00022520,-0.00011
 192,-0.00000475,-0.00000346,-0.00000200,-0.00001060,-0.00005490,-0.000
 02451,-0.00000042,0.00000068,-0.00000024,-0.00000846,0.00000872,-0.000
 03006,0.00000349,0.00000287,0.00000175,-0.00000329,-0.00000099,0.00000
 288,-0.00000131,-0.00000370,-0.00000472,0.00010860,-0.00114332,0.00126
 095,-0.00012877,0.00012411,-0.00007739,-0.00047981,0.00023091,-0.00011
 770,-0.00000170,0.00000060,-0.00000165,-0.00000015,0.00000350,-0.00000
 059,-0.00000152,-0.00000191,0.00000124,0.02298109,-0.00627542,0.009389
 20,-0.00078914,-0.00037857,0.00110504,0.00404029,0.00088048,-0.0029616
 6,-0.00000001,0.,0.00000022,0.00000021,-0.00000157,0.00000138,-0.00000
 051,0.00000027,0.00000051,-0.00000050,0.00000012,-0.00000140,-0.090874
 97,0.02686868,-0.08536091,-0.00829739,0.00160922,-0.00469512,-0.022015
 16,0.00818915,-0.00959928,0.09562648,-0.02995577,0.09112868\\-0.000009
 37,-0.00000593,-0.00000588,0.00000701,0.00000194,0.00000309,-0.0000110
 1,-0.00000216,-0.00000295,0.00000723,0.00000094,0.00000081,-0.00001183
 ,0.00000104,-0.00000061,0.00001752,0.00000405,0.00000538,0.00000212,0.
 00000044,0.00000059,0.00000098,0.00000118,0.00000104,0.00000164,-0.000
 00157,-0.00000209,0.00000180,-0.00000054,-0.00000021,-0.00000649,-0.00
 000130,-0.00000171,0.00000594,0.00000361,0.00001195,0.00000057,-0.0000
 0082,-0.00000657,-0.00001282,-0.00000276,-0.00000349,-0.00000278,0.000
 00018,0.00000565,0.00001162,0.00000019,-0.00000709,-0.00000246,0.00000
 139,0.00000199,-0.00000035,-0.00000200,-0.00000277,-0.00000037,0.00000
 188,0.00000250,0.00000310,0.00000067,0.00000090,-0.00000007,-0.0000068
 4,-0.00000171,-0.00000174,0.00000203,0.00000025,0.00000160,0.00000200,
 -0.00000008,-0.00000350,0.00000606,0.00000068,-0.00000045,-0.00000243,
 -0.00000089,0.00000196,-0.00000129,0.00000112,-0.00000263,0.00001217,-
 0.00000162,0.00000103,-0.00000395,-0.00000067,-0.00000020,-0.00000422,
 -0.00000024,0.00000190,-0.00001229,0.00000149,-0.00000108,0.00000392,0
 .00000061,-0.00000194,0.00000374,-0.00000038,0.00000262,-0.00000617,0.
 00000643,-0.00000095,0.00000266,-0.00000139,-0.00000050,0.00000211,-0.
 00000070,-0.00000067,0.00000200,-0.00000059,0.00000292,0.00000739,-0.0
 0000487,-0.00000041,-0.00000296,0.00000101,0.00000008,-0.00000221,0.00
 000060,-0.00000002,-0.00000217,0.00000039\\\@
 The archive entry for this job was punched.


 JUST WHEN YOU THINK YOU'VE GOT THE WORLD ON A STRING,
 YOU FIND OUT IT'S YOUR LEASH.
 Job cpu time:       2 days 11 hours 20 minutes 23.2 seconds.
 Elapsed time:       0 days  1 hours 52 minutes 51.5 seconds.
 File lengths (MBytes):  RWF=   1292 Int=      0 D2E=      0 Chk=     39 Scr=      1
 Normal termination of Gaussian 16 at Tue Nov 14 07:43:40 2023.
