 Entering Gaussian System, Link 0=g16
 Input=ph_35isopbutyl_38_1_m062x.com
 Output=ph_35isopbutyl_38_1_m062x.log
 Initial command:
 /arc/software/Gaussian/g16.c01/l1.exe "/tmp/slurm/41591/Gau-168586.inp" -scrdir="/tmp/slurm/41591/"
 Entering Link 1 = /arc/software/Gaussian/g16.c01/l1.exe PID=    168587.
  
 Copyright (c) 1988-2019, Gaussian, Inc.  All Rights Reserved.
  
 This is part of the Gaussian(R) 16 program.  It is based on
 the Gaussian(R) 09 system (copyright 2009, Gaussian, Inc.),
 the Gaussian(R) 03 system (copyright 2003, Gaussian, Inc.),
 the Gaussian(R) 98 system (copyright 1998, Gaussian, Inc.),
 the Gaussian(R) 94 system (copyright 1995, Gaussian, Inc.),
 the Gaussian 92(TM) system (copyright 1992, Gaussian, Inc.),
 the Gaussian 90(TM) system (copyright 1990, Gaussian, Inc.),
 the Gaussian 88(TM) system (copyright 1988, Gaussian, Inc.),
 the Gaussian 86(TM) system (copyright 1986, Carnegie Mellon
 University), and the Gaussian 82(TM) system (copyright 1983,
 Carnegie Mellon University). Gaussian is a federally registered
 trademark of Gaussian, Inc.
  
 This software contains proprietary and confidential information,
 including trade secrets, belonging to Gaussian, Inc.
  
 This software is provided under written license and may be
 used, copied, transmitted, or stored only in accord with that
 written license.
  
 The following legend is applicable only to US Government
 contracts under FAR:
  
                    RESTRICTED RIGHTS LEGEND
  
 Use, reproduction and disclosure by the US Government is
 subject to restrictions as set forth in subparagraphs (a)
 and (c) of the Commercial Computer Software - Restricted
 Rights clause in FAR 52.227-19.
  
 Gaussian, Inc.
 340 Quinnipiac St., Bldg. 40, Wallingford CT 06492
  
  
 ---------------------------------------------------------------
 Warning -- This program may not be used in any manner that
 competes with the business of Gaussian, Inc. or will provide
 assistance to any competitor of Gaussian, Inc.  The licensee
 of this program is prohibited from giving any competitor of
 Gaussian, Inc. access to this program.  By using this program,
 the user acknowledges that Gaussian, Inc. is engaged in the
 business of creating and licensing software in the field of
 computational chemistry and represents and warrants to the
 licensee that it is not a competitor of Gaussian, Inc. and that
 it will not use this program in any manner prohibited above.
 ---------------------------------------------------------------
  

 Cite this work as:
 Gaussian 16, Revision C.01,
 M. J. Frisch, G. W. Trucks, H. B. Schlegel, G. E. Scuseria, 
 M. A. Robb, J. R. Cheeseman, G. Scalmani, V. Barone, 
 G. A. Petersson, H. Nakatsuji, X. Li, M. Caricato, A. V. Marenich, 
 J. Bloino, B. G. Janesko, R. Gomperts, B. Mennucci, H. P. Hratchian, 
 J. V. Ortiz, A. F. Izmaylov, J. L. Sonnenberg, D. Williams-Young, 
 F. Ding, F. Lipparini, F. Egidi, J. Goings, B. Peng, A. Petrone, 
 T. Henderson, D. Ranasinghe, V. G. Zakrzewski, J. Gao, N. Rega, 
 G. Zheng, W. Liang, M. Hada, M. Ehara, K. Toyota, R. Fukuda, 
 J. Hasegawa, M. Ishida, T. Nakajima, Y. Honda, O. Kitao, H. Nakai, 
 T. Vreven, K. Throssell, J. A. Montgomery, Jr., J. E. Peralta, 
 F. Ogliaro, M. J. Bearpark, J. J. Heyd, E. N. Brothers, K. N. Kudin, 
 V. N. Staroverov, T. A. Keith, R. Kobayashi, J. Normand, 
 K. Raghavachari, A. P. Rendell, J. C. Burant, S. S. Iyengar, 
 J. Tomasi, M. Cossi, J. M. Millam, M. Klene, C. Adamo, R. Cammi, 
 J. W. Ochterski, R. L. Martin, K. Morokuma, O. Farkas, 
 J. B. Foresman, and D. J. Fox, Gaussian, Inc., Wallingford CT, 2019.
 
 ******************************************
 Gaussian 16:  ES64L-G16RevC.01  3-Jul-2019
                13-Nov-2023 
 ******************************************
 %nprocshared=32
 Will use up to   32 processors via shared memory.
 %mem=8000MB
 %chk=ph_35isopbutyl_38_1_m062x.chk
 -----------------------------------------
 # opt freq=noraman m062x def2tzvp pop=nbo
 -----------------------------------------
 1/18=20,19=15,26=3,38=1/1,3;
 2/9=110,12=2,17=6,18=5,40=1/2;
 3/5=44,7=101,11=2,25=1,30=1,71=1,74=-55/1,2,3;
 4//1;
 5/5=2,38=5/2;
 6/7=2,8=2,9=2,10=2,28=1,40=1/1,7;
 7//1,2,3,16;
 1/18=20,19=15,26=3/3(2);
 2/9=110/2;
 99//99;
 2/9=110/2;
 3/5=44,7=101,11=2,25=1,30=1,71=1,74=-55/1,2,3;
 4/5=5,16=3,69=1/1;
 5/5=2,38=5/2;
 7//1,2,3,16;
 1/18=20,19=15,26=3/3(-5);
 2/9=110/2;
 6/7=2,8=2,9=2,10=2,19=2,28=1,40=1/1,7;
 99/9=1/99;
 ------------
 Structure697
 ------------
 Symbolic Z-matrix:
 Charge =  0 Multiplicity = 1
 C                    -6.6744   -0.731    -2.6581 
 C                    -7.0683    0.2735   -3.5389 
 C                    -6.176     1.2901   -3.8677 
 C                    -4.8951    1.3082   -3.3229 
 C                    -4.5058    0.3005   -2.4437 
 C                    -5.3891   -0.7316   -2.0994 
 H                    -6.4798    2.0707   -4.5505 
 H                    -3.5145    0.3319   -2.0162 
 H                    -8.0603    0.2612   -3.9667 
 H                    -7.37     -1.5222   -2.4203 
 C                    -4.1774   -3.8339    0.6288 
 C                    -3.2651   -3.331    -0.3001 
 C                    -3.6657   -2.324    -1.1821 
 C                    -4.9695   -1.8097   -1.1558 
 C                    -5.8677   -2.3343   -0.2161 
 C                    -5.4815   -3.3384    0.676 
 H                    -2.9568   -1.945    -1.9031 
 H                    -6.872    -1.9419   -0.1633 
 H                    -4.2069    2.1011   -3.5777 
 H                    -3.8717   -4.6061    1.3194 
 C                    -1.8437   -3.8695   -0.3469 
 H                    -1.8504   -4.9203   -0.0528 
 H                    -1.5047   -3.8636   -1.3834 
 C                    -6.4696   -3.8834    1.6981 
 H                    -6.3633   -4.969     1.724 
 H                    -7.4911   -3.7179    1.354 
 C                    -0.8812   -3.0665    0.5516 
 H                    -0.8598   -2.0261    0.2217 
 H                    -1.2935   -3.0447    1.5623 
 C                    -6.2695   -3.3135    3.1205 
 H                    -6.9449   -3.8305    3.804 
 H                    -5.2642   -3.5751    3.4559 
 C                     0.5604   -3.6224    0.6096 
 H                     0.5029   -4.6711    0.9095 
 C                    -6.4727   -1.7858    3.268 
 H                    -5.8084   -1.2864    2.559 
 C                     1.3867   -2.8892    1.6807 
 H                     1.4897   -1.8281    1.4495 
 H                     0.9225   -2.9689    2.6645 
 C                    -7.9133   -1.3443    2.9479 
 H                    -8.6361   -1.8322    3.6028 
 H                    -8.1881   -1.5751    1.9192 
 H                     2.3904   -3.3078    1.7638 
 H                    -8.0315   -0.267     3.0708 
 C                     1.2757   -3.5664   -0.7537 
 H                     2.298    -3.9393   -0.679 
 H                     0.772    -4.1786   -1.5015 
 H                     1.3249   -2.5466   -1.1373 
 C                    -6.0647   -1.3125    4.6739 
 H                    -6.1579   -0.23      4.7701 
 H                    -6.6858   -1.7677    5.4463 
 H                    -5.0264   -1.5659    4.8916 
 

 GradGradGradGradGradGradGradGradGradGradGradGradGradGradGradGradGradGrad
 Berny optimization.
 Initialization pass.
                           ----------------------------
                           !    Initial Parameters    !
                           ! (Angstroms and Degrees)  !
 --------------------------                            --------------------------
 ! Name  Definition              Value          Derivative Info.                !
 --------------------------------------------------------------------------------
 ! R1    R(1,2)                  1.3928         estimate D2E/DX2                !
 ! R2    R(1,6)                  1.4015         estimate D2E/DX2                !
 ! R3    R(1,10)                 1.08           estimate D2E/DX2                !
 ! R4    R(2,3)                  1.392          estimate D2E/DX2                !
 ! R5    R(2,9)                  1.0804         estimate D2E/DX2                !
 ! R6    R(3,4)                  1.3921         estimate D2E/DX2                !
 ! R7    R(3,7)                  1.0807         estimate D2E/DX2                !
 ! R8    R(4,5)                  1.3928         estimate D2E/DX2                !
 ! R9    R(4,19)                 1.0804         estimate D2E/DX2                !
 ! R10   R(5,6)                  1.4014         estimate D2E/DX2                !
 ! R11   R(5,8)                  1.08           estimate D2E/DX2                !
 ! R12   R(6,14)                 1.4929         estimate D2E/DX2                !
 ! R13   R(11,12)                1.3957         estimate D2E/DX2                !
 ! R14   R(11,16)                1.3959         estimate D2E/DX2                !
 ! R15   R(11,20)                1.0801         estimate D2E/DX2                !
 ! R16   R(12,13)                1.3973         estimate D2E/DX2                !
 ! R17   R(12,21)                1.5207         estimate D2E/DX2                !
 ! R18   R(13,14)                1.4018         estimate D2E/DX2                !
 ! R19   R(13,17)                1.0798         estimate D2E/DX2                !
 ! R20   R(14,15)                1.4018         estimate D2E/DX2                !
 ! R21   R(15,16)                1.3976         estimate D2E/DX2                !
 ! R22   R(15,18)                1.0795         estimate D2E/DX2                !
 ! R23   R(16,24)                1.5225         estimate D2E/DX2                !
 ! R24   R(21,22)                1.0912         estimate D2E/DX2                !
 ! R25   R(21,23)                1.0905         estimate D2E/DX2                !
 ! R26   R(21,27)                1.5422         estimate D2E/DX2                !
 ! R27   R(24,25)                1.0911         estimate D2E/DX2                !
 ! R28   R(24,26)                1.0905         estimate D2E/DX2                !
 ! R29   R(24,30)                1.5453         estimate D2E/DX2                !
 ! R30   R(27,28)                1.0917         estimate D2E/DX2                !
 ! R31   R(27,29)                1.0918         estimate D2E/DX2                !
 ! R32   R(27,33)                1.5462         estimate D2E/DX2                !
 ! R33   R(30,31)                1.0912         estimate D2E/DX2                !
 ! R34   R(30,32)                1.0916         estimate D2E/DX2                !
 ! R35   R(30,35)                1.5482         estimate D2E/DX2                !
 ! R36   R(33,34)                1.0923         estimate D2E/DX2                !
 ! R37   R(33,37)                1.5387         estimate D2E/DX2                !
 ! R38   R(33,45)                1.5406         estimate D2E/DX2                !
 ! R39   R(35,36)                1.0924         estimate D2E/DX2                !
 ! R40   R(35,40)                1.5404         estimate D2E/DX2                !
 ! R41   R(35,49)                1.5385         estimate D2E/DX2                !
 ! R42   R(37,38)                1.0909         estimate D2E/DX2                !
 ! R43   R(37,39)                1.0907         estimate D2E/DX2                !
 ! R44   R(37,43)                1.0907         estimate D2E/DX2                !
 ! R45   R(40,41)                1.0906         estimate D2E/DX2                !
 ! R46   R(40,42)                1.0895         estimate D2E/DX2                !
 ! R47   R(40,44)                1.0907         estimate D2E/DX2                !
 ! R48   R(45,46)                1.0907         estimate D2E/DX2                !
 ! R49   R(45,47)                1.0898         estimate D2E/DX2                !
 ! R50   R(45,48)                1.0907         estimate D2E/DX2                !
 ! R51   R(49,50)                1.0908         estimate D2E/DX2                !
 ! R52   R(49,51)                1.0907         estimate D2E/DX2                !
 ! R53   R(49,52)                1.0907         estimate D2E/DX2                !
 ! A1    A(2,1,6)              120.7817         estimate D2E/DX2                !
 ! A2    A(2,1,10)             119.0408         estimate D2E/DX2                !
 ! A3    A(6,1,10)             120.1715         estimate D2E/DX2                !
 ! A4    A(1,2,3)              119.6547         estimate D2E/DX2                !
 ! A5    A(1,2,9)              120.1233         estimate D2E/DX2                !
 ! A6    A(3,2,9)              120.2217         estimate D2E/DX2                !
 ! A7    A(2,3,4)              120.4555         estimate D2E/DX2                !
 ! A8    A(2,3,7)              119.7721         estimate D2E/DX2                !
 ! A9    A(4,3,7)              119.7724         estimate D2E/DX2                !
 ! A10   A(3,4,5)              119.6574         estimate D2E/DX2                !
 ! A11   A(3,4,19)             120.2233         estimate D2E/DX2                !
 ! A12   A(5,4,19)             120.1191         estimate D2E/DX2                !
 ! A13   A(4,5,6)              120.7795         estimate D2E/DX2                !
 ! A14   A(4,5,8)              119.0366         estimate D2E/DX2                !
 ! A15   A(6,5,8)              120.1776         estimate D2E/DX2                !
 ! A16   A(1,6,5)              118.6712         estimate D2E/DX2                !
 ! A17   A(1,6,14)             120.6668         estimate D2E/DX2                !
 ! A18   A(5,6,14)             120.662          estimate D2E/DX2                !
 ! A19   A(12,11,16)           120.3493         estimate D2E/DX2                !
 ! A20   A(12,11,20)           119.8757         estimate D2E/DX2                !
 ! A21   A(16,11,20)           119.7738         estimate D2E/DX2                !
 ! A22   A(11,12,13)           119.4964         estimate D2E/DX2                !
 ! A23   A(11,12,21)           120.2546         estimate D2E/DX2                !
 ! A24   A(13,12,21)           120.2482         estimate D2E/DX2                !
 ! A25   A(12,13,14)           121.2792         estimate D2E/DX2                !
 ! A26   A(12,13,17)           119.0907         estimate D2E/DX2                !
 ! A27   A(14,13,17)           119.6269         estimate D2E/DX2                !
 ! A28   A(6,14,13)            120.9639         estimate D2E/DX2                !
 ! A29   A(6,14,15)            120.9219         estimate D2E/DX2                !
 ! A30   A(13,14,15)           118.114          estimate D2E/DX2                !
 ! A31   A(14,15,16)           121.3131         estimate D2E/DX2                !
 ! A32   A(14,15,18)           119.5285         estimate D2E/DX2                !
 ! A33   A(16,15,18)           119.1444         estimate D2E/DX2                !
 ! A34   A(11,16,15)           119.4474         estimate D2E/DX2                !
 ! A35   A(11,16,24)           120.1298         estimate D2E/DX2                !
 ! A36   A(15,16,24)           120.4217         estimate D2E/DX2                !
 ! A37   A(12,21,22)           109.0848         estimate D2E/DX2                !
 ! A38   A(12,21,23)           108.5353         estimate D2E/DX2                !
 ! A39   A(12,21,27)           112.3975         estimate D2E/DX2                !
 ! A40   A(22,21,23)           105.2648         estimate D2E/DX2                !
 ! A41   A(22,21,27)           110.3775         estimate D2E/DX2                !
 ! A42   A(23,21,27)           110.9101         estimate D2E/DX2                !
 ! A43   A(16,24,25)           107.9908         estimate D2E/DX2                !
 ! A44   A(16,24,26)           109.9842         estimate D2E/DX2                !
 ! A45   A(16,24,30)           113.6953         estimate D2E/DX2                !
 ! A46   A(25,24,26)           104.4623         estimate D2E/DX2                !
 ! A47   A(25,24,30)           109.4185         estimate D2E/DX2                !
 ! A48   A(26,24,30)           110.8398         estimate D2E/DX2                !
 ! A49   A(21,27,28)           109.4142         estimate D2E/DX2                !
 ! A50   A(21,27,29)           108.303          estimate D2E/DX2                !
 ! A51   A(21,27,33)           114.6165         estimate D2E/DX2                !
 ! A52   A(28,27,29)           105.5531         estimate D2E/DX2                !
 ! A53   A(28,27,33)           109.6159         estimate D2E/DX2                !
 ! A54   A(29,27,33)           108.9387         estimate D2E/DX2                !
 ! A55   A(24,30,31)           108.7648         estimate D2E/DX2                !
 ! A56   A(24,30,32)           108.2816         estimate D2E/DX2                !
 ! A57   A(24,30,35)           115.7601         estimate D2E/DX2                !
 ! A58   A(31,30,32)           105.3095         estimate D2E/DX2                !
 ! A59   A(31,30,35)           109.0636         estimate D2E/DX2                !
 ! A60   A(32,30,35)           109.1523         estimate D2E/DX2                !
 ! A61   A(27,33,34)           107.8434         estimate D2E/DX2                !
 ! A62   A(27,33,37)           110.8233         estimate D2E/DX2                !
 ! A63   A(27,33,45)           112.7458         estimate D2E/DX2                !
 ! A64   A(34,33,37)           107.1362         estimate D2E/DX2                !
 ! A65   A(34,33,45)           107.5969         estimate D2E/DX2                !
 ! A66   A(37,33,45)           110.4473         estimate D2E/DX2                !
 ! A67   A(30,35,36)           108.0262         estimate D2E/DX2                !
 ! A68   A(30,35,40)           112.692          estimate D2E/DX2                !
 ! A69   A(30,35,49)           110.8434         estimate D2E/DX2                !
 ! A70   A(36,35,40)           107.6268         estimate D2E/DX2                !
 ! A71   A(36,35,49)           106.9285         estimate D2E/DX2                !
 ! A72   A(40,35,49)           110.4712         estimate D2E/DX2                !
 ! A73   A(33,37,38)           111.5106         estimate D2E/DX2                !
 ! A74   A(33,37,39)           111.3768         estimate D2E/DX2                !
 ! A75   A(33,37,43)           111.3673         estimate D2E/DX2                !
 ! A76   A(38,37,39)           107.6032         estimate D2E/DX2                !
 ! A77   A(38,37,43)           107.613          estimate D2E/DX2                !
 ! A78   A(39,37,43)           107.1506         estimate D2E/DX2                !
 ! A79   A(35,40,41)           111.5198         estimate D2E/DX2                !
 ! A80   A(35,40,42)           111.801          estimate D2E/DX2                !
 ! A81   A(35,40,44)           111.1636         estimate D2E/DX2                !
 ! A82   A(41,40,42)           107.7614         estimate D2E/DX2                !
 ! A83   A(41,40,44)           107.601          estimate D2E/DX2                !
 ! A84   A(42,40,44)           106.7558         estimate D2E/DX2                !
 ! A85   A(33,45,46)           111.2316         estimate D2E/DX2                !
 ! A86   A(33,45,47)           111.851          estimate D2E/DX2                !
 ! A87   A(33,45,48)           111.4797         estimate D2E/DX2                !
 ! A88   A(46,45,47)           106.7459         estimate D2E/DX2                !
 ! A89   A(46,45,48)           107.5458         estimate D2E/DX2                !
 ! A90   A(47,45,48)           107.7437         estimate D2E/DX2                !
 ! A91   A(35,49,50)           111.2993         estimate D2E/DX2                !
 ! A92   A(35,49,51)           111.5758         estimate D2E/DX2                !
 ! A93   A(35,49,52)           111.3069         estimate D2E/DX2                !
 ! A94   A(50,49,51)           107.6427         estimate D2E/DX2                !
 ! A95   A(50,49,52)           107.1156         estimate D2E/DX2                !
 ! A96   A(51,49,52)           107.6851         estimate D2E/DX2                !
 ! D1    D(6,1,2,3)             -0.0686         estimate D2E/DX2                !
 ! D2    D(6,1,2,9)            179.7352         estimate D2E/DX2                !
 ! D3    D(10,1,2,3)          -179.178          estimate D2E/DX2                !
 ! D4    D(10,1,2,9)             0.6259         estimate D2E/DX2                !
 ! D5    D(2,1,6,5)              0.0446         estimate D2E/DX2                !
 ! D6    D(2,1,6,14)          -179.9875         estimate D2E/DX2                !
 ! D7    D(10,1,6,5)           179.1439         estimate D2E/DX2                !
 ! D8    D(10,1,6,14)           -0.8882         estimate D2E/DX2                !
 ! D9    D(1,2,3,4)              0.024          estimate D2E/DX2                !
 ! D10   D(1,2,3,7)           -179.9685         estimate D2E/DX2                !
 ! D11   D(9,2,3,4)           -179.7796         estimate D2E/DX2                !
 ! D12   D(9,2,3,7)              0.2278         estimate D2E/DX2                !
 ! D13   D(2,3,4,5)              0.0436         estimate D2E/DX2                !
 ! D14   D(2,3,4,19)          -179.7627         estimate D2E/DX2                !
 ! D15   D(7,3,4,5)           -179.9639         estimate D2E/DX2                !
 ! D16   D(7,3,4,19)             0.2299         estimate D2E/DX2                !
 ! D17   D(3,4,5,6)             -0.0678         estimate D2E/DX2                !
 ! D18   D(3,4,5,8)           -179.1529         estimate D2E/DX2                !
 ! D19   D(19,4,5,6)           179.7386         estimate D2E/DX2                !
 ! D20   D(19,4,5,8)             0.6535         estimate D2E/DX2                !
 ! D21   D(4,5,6,1)              0.024          estimate D2E/DX2                !
 ! D22   D(4,5,6,14)          -179.9439         estimate D2E/DX2                !
 ! D23   D(8,5,6,1)            179.0987         estimate D2E/DX2                !
 ! D24   D(8,5,6,14)            -0.8693         estimate D2E/DX2                !
 ! D25   D(1,6,14,13)          142.2564         estimate D2E/DX2                !
 ! D26   D(1,6,14,15)          -37.8906         estimate D2E/DX2                !
 ! D27   D(5,6,14,13)          -37.7764         estimate D2E/DX2                !
 ! D28   D(5,6,14,15)          142.0767         estimate D2E/DX2                !
 ! D29   D(16,11,12,13)          0.1529         estimate D2E/DX2                !
 ! D30   D(16,11,12,21)        179.8189         estimate D2E/DX2                !
 ! D31   D(20,11,12,13)       -179.451          estimate D2E/DX2                !
 ! D32   D(20,11,12,21)          0.215          estimate D2E/DX2                !
 ! D33   D(12,11,16,15)          0.0603         estimate D2E/DX2                !
 ! D34   D(12,11,16,24)       -179.5502         estimate D2E/DX2                !
 ! D35   D(20,11,16,15)        179.6646         estimate D2E/DX2                !
 ! D36   D(20,11,16,24)          0.0541         estimate D2E/DX2                !
 ! D37   D(11,12,13,14)         -0.1858         estimate D2E/DX2                !
 ! D38   D(11,12,13,17)       -179.5363         estimate D2E/DX2                !
 ! D39   D(21,12,13,14)       -179.8519         estimate D2E/DX2                !
 ! D40   D(21,12,13,17)          0.7977         estimate D2E/DX2                !
 ! D41   D(11,12,21,22)         31.6239         estimate D2E/DX2                !
 ! D42   D(11,12,21,23)        145.8185         estimate D2E/DX2                !
 ! D43   D(11,12,21,27)        -91.1351         estimate D2E/DX2                !
 ! D44   D(13,12,21,22)       -148.7126         estimate D2E/DX2                !
 ! D45   D(13,12,21,23)        -34.518          estimate D2E/DX2                !
 ! D46   D(13,12,21,27)         88.5285         estimate D2E/DX2                !
 ! D47   D(12,13,14,6)         179.8609         estimate D2E/DX2                !
 ! D48   D(12,13,14,15)          0.0038         estimate D2E/DX2                !
 ! D49   D(17,13,14,6)          -0.7921         estimate D2E/DX2                !
 ! D50   D(17,13,14,15)        179.3508         estimate D2E/DX2                !
 ! D51   D(6,14,15,16)        -179.6422         estimate D2E/DX2                !
 ! D52   D(6,14,15,18)          -1.0106         estimate D2E/DX2                !
 ! D53   D(13,14,15,16)          0.2149         estimate D2E/DX2                !
 ! D54   D(13,14,15,18)        178.8465         estimate D2E/DX2                !
 ! D55   D(14,15,16,11)         -0.2483         estimate D2E/DX2                !
 ! D56   D(14,15,16,24)        179.361          estimate D2E/DX2                !
 ! D57   D(18,15,16,11)       -178.885          estimate D2E/DX2                !
 ! D58   D(18,15,16,24)          0.7243         estimate D2E/DX2                !
 ! D59   D(11,16,24,25)        -43.3227         estimate D2E/DX2                !
 ! D60   D(11,16,24,26)       -156.7447         estimate D2E/DX2                !
 ! D61   D(11,16,24,30)         78.2956         estimate D2E/DX2                !
 ! D62   D(15,16,24,25)        137.0707         estimate D2E/DX2                !
 ! D63   D(15,16,24,26)         23.6486         estimate D2E/DX2                !
 ! D64   D(15,16,24,30)       -101.311          estimate D2E/DX2                !
 ! D65   D(12,21,27,28)        -59.9608         estimate D2E/DX2                !
 ! D66   D(12,21,27,29)         54.6229         estimate D2E/DX2                !
 ! D67   D(12,21,27,33)        176.4651         estimate D2E/DX2                !
 ! D68   D(22,21,27,28)        178.0111         estimate D2E/DX2                !
 ! D69   D(22,21,27,29)        -67.4052         estimate D2E/DX2                !
 ! D70   D(22,21,27,33)         54.4369         estimate D2E/DX2                !
 ! D71   D(23,21,27,28)         61.7427         estimate D2E/DX2                !
 ! D72   D(23,21,27,29)        176.3264         estimate D2E/DX2                !
 ! D73   D(23,21,27,33)        -61.8315         estimate D2E/DX2                !
 ! D74   D(16,24,30,31)       -174.1796         estimate D2E/DX2                !
 ! D75   D(16,24,30,32)        -60.2311         estimate D2E/DX2                !
 ! D76   D(16,24,30,35)         62.6615         estimate D2E/DX2                !
 ! D77   D(25,24,30,31)        -53.3589         estimate D2E/DX2                !
 ! D78   D(25,24,30,32)         60.5896         estimate D2E/DX2                !
 ! D79   D(25,24,30,35)       -176.5177         estimate D2E/DX2                !
 ! D80   D(26,24,30,31)         61.3201         estimate D2E/DX2                !
 ! D81   D(26,24,30,32)        175.2686         estimate D2E/DX2                !
 ! D82   D(26,24,30,35)        -61.8388         estimate D2E/DX2                !
 ! D83   D(21,27,33,34)        -54.6703         estimate D2E/DX2                !
 ! D84   D(21,27,33,37)       -171.6449         estimate D2E/DX2                !
 ! D85   D(21,27,33,45)         63.9716         estimate D2E/DX2                !
 ! D86   D(28,27,33,34)       -178.1366         estimate D2E/DX2                !
 ! D87   D(28,27,33,37)         64.8889         estimate D2E/DX2                !
 ! D88   D(28,27,33,45)        -59.4947         estimate D2E/DX2                !
 ! D89   D(29,27,33,34)         66.8246         estimate D2E/DX2                !
 ! D90   D(29,27,33,37)        -50.1499         estimate D2E/DX2                !
 ! D91   D(29,27,33,45)       -174.5335         estimate D2E/DX2                !
 ! D92   D(24,30,35,36)        -55.5432         estimate D2E/DX2                !
 ! D93   D(24,30,35,40)         63.2233         estimate D2E/DX2                !
 ! D94   D(24,30,35,49)       -172.3864         estimate D2E/DX2                !
 ! D95   D(31,30,35,36)       -178.5449         estimate D2E/DX2                !
 ! D96   D(31,30,35,40)        -59.7784         estimate D2E/DX2                !
 ! D97   D(31,30,35,49)         64.6119         estimate D2E/DX2                !
 ! D98   D(32,30,35,36)         66.8892         estimate D2E/DX2                !
 ! D99   D(32,30,35,40)       -174.3443         estimate D2E/DX2                !
 ! D100  D(32,30,35,49)        -49.954          estimate D2E/DX2                !
 ! D101  D(27,33,37,38)        -62.6143         estimate D2E/DX2                !
 ! D102  D(27,33,37,39)         57.6076         estimate D2E/DX2                !
 ! D103  D(27,33,37,43)        177.1578         estimate D2E/DX2                !
 ! D104  D(34,33,37,38)        179.9774         estimate D2E/DX2                !
 ! D105  D(34,33,37,39)        -59.8007         estimate D2E/DX2                !
 ! D106  D(34,33,37,43)         59.7495         estimate D2E/DX2                !
 ! D107  D(45,33,37,38)         63.0673         estimate D2E/DX2                !
 ! D108  D(45,33,37,39)       -176.7108         estimate D2E/DX2                !
 ! D109  D(45,33,37,43)        -57.1606         estimate D2E/DX2                !
 ! D110  D(27,33,45,46)        178.4907         estimate D2E/DX2                !
 ! D111  D(27,33,45,47)        -62.2456         estimate D2E/DX2                !
 ! D112  D(27,33,45,48)         58.4617         estimate D2E/DX2                !
 ! D113  D(34,33,45,46)        -62.7236         estimate D2E/DX2                !
 ! D114  D(34,33,45,47)         56.5401         estimate D2E/DX2                !
 ! D115  D(34,33,45,48)        177.2474         estimate D2E/DX2                !
 ! D116  D(37,33,45,46)         53.9009         estimate D2E/DX2                !
 ! D117  D(37,33,45,47)        173.1646         estimate D2E/DX2                !
 ! D118  D(37,33,45,48)        -66.1281         estimate D2E/DX2                !
 ! D119  D(30,35,40,41)         59.2553         estimate D2E/DX2                !
 ! D120  D(30,35,40,42)        -61.468          estimate D2E/DX2                !
 ! D121  D(30,35,40,44)        179.3352         estimate D2E/DX2                !
 ! D122  D(36,35,40,41)        178.2546         estimate D2E/DX2                !
 ! D123  D(36,35,40,42)         57.5314         estimate D2E/DX2                !
 ! D124  D(36,35,40,44)        -61.6655         estimate D2E/DX2                !
 ! D125  D(49,35,40,41)        -65.3392         estimate D2E/DX2                !
 ! D126  D(49,35,40,42)        173.9375         estimate D2E/DX2                !
 ! D127  D(49,35,40,44)         54.7407         estimate D2E/DX2                !
 ! D128  D(30,35,49,50)        177.1746         estimate D2E/DX2                !
 ! D129  D(30,35,49,51)        -62.5617         estimate D2E/DX2                !
 ! D130  D(30,35,49,52)         57.7611         estimate D2E/DX2                !
 ! D131  D(36,35,49,50)         59.6582         estimate D2E/DX2                !
 ! D132  D(36,35,49,51)        179.9219         estimate D2E/DX2                !
 ! D133  D(36,35,49,52)        -59.7553         estimate D2E/DX2                !
 ! D134  D(40,35,49,50)        -57.1813         estimate D2E/DX2                !
 ! D135  D(40,35,49,51)         63.0824         estimate D2E/DX2                !
 ! D136  D(40,35,49,52)       -176.5948         estimate D2E/DX2                !
 --------------------------------------------------------------------------------
 Trust Radius=3.00D-01 FncErr=1.00D-07 GrdErr=1.00D-06 EigMax=2.50D+02 EigMin=1.00D-04
 Number of steps in this run=    295 maximum allowed number of steps=    312.
 GradGradGradGradGradGradGradGradGradGradGradGradGradGradGradGradGradGrad

 Stoichiometry    C22H30
 Framework group  C1[X(C22H30)]
 Deg. of freedom   150
 Full point group                 C1      NOp   1
 Largest Abelian subgroup         C1      NOp   1
 Largest concise Abelian subgroup C1      NOp   1
                         Standard orientation:                         
 ---------------------------------------------------------------------
 Center     Atomic      Atomic             Coordinates (Angstroms)
 Number     Number       Type             X           Y           Z
 ---------------------------------------------------------------------
      1          6           0        3.233661   -2.073838   -0.664064
      2          6           0        4.137671   -3.053240   -0.259682
      3          6           0        3.779559   -3.948848    0.744024
      4          6           0        2.525865   -3.871708    1.344142
      5          6           0        1.625094   -2.891279    0.935025
      6          6           0        1.966257   -1.979773   -0.073319
      7          1           0        4.479674   -4.709174    1.059602
      8          1           0        0.660407   -2.831781    1.416956
      9          1           0        5.110348   -3.118782   -0.725334
     10          1           0        3.516764   -1.392646   -1.452884
     11          6           0       -0.822795    1.053643   -1.320368
     12          6           0       -1.284009   -0.224254   -1.000498
     13          6           0       -0.372756   -1.203398   -0.596332
     14          6           0        0.999195   -0.929165   -0.508931
     15          6           0        1.437345    0.360756   -0.839282
     16          6           0        0.538362    1.352583   -1.240926
     17          1           0       -0.735791   -2.191971   -0.357690
     18          1           0        2.486665    0.602306   -0.762044
     19          1           0        2.253266   -4.566313    2.125453
     20          1           0       -1.522867    1.817714   -1.624946
     21          6           0       -2.767860   -0.546417   -1.083842
     22          1           0       -3.218052    0.048907   -1.879855
     23          1           0       -2.880120   -1.583375   -1.402282
     24          6           0        1.034802    2.751098   -1.581158
     25          1           0        0.518791    3.081517   -2.483961
     26          1           0        2.086615    2.713993   -1.866761
     27          6           0       -3.498936   -0.298397    0.251273
     28          1           0       -3.059383   -0.927153    1.027921
     29          1           0       -3.304946    0.729938    0.562523
     30          6           0        0.807541    3.782340   -0.452912
     31          1           0        1.094458    4.770078   -0.817164
     32          1           0       -0.264728    3.846949   -0.258951
     33          6           0       -5.027174   -0.527659    0.200993
     34          1           0       -5.431653    0.088258   -0.605271
     35          6           0        1.548085    3.498990    0.876833
     36          1           0        1.269220    2.497459    1.212309
     37          6           0       -5.693670   -0.060146    1.506681
     38          1           0       -5.338388   -0.632834    2.364468
     39          1           0       -5.486507    0.992380    1.704086
     40          6           0        3.080328    3.529204    0.721812
     41          1           0        3.426585    4.497185    0.357806
     42          1           0        3.431770    2.767578    0.026527
     43          1           0       -6.777683   -0.171615    1.461548
     44          1           0        3.576325    3.338368    1.674294
     45          6           0       -5.400271   -1.991874   -0.099422
     46          1           0       -6.482092   -2.131091   -0.102959
     47          1           0       -5.039546   -2.309917   -1.077396
     48          1           0       -4.983792   -2.671027    0.645466
     49          6           0        1.098763    4.480068    1.973477
     50          1           0        1.579071    4.255793    2.926762
     51          1           0        1.343651    5.510826    1.714361
     52          1           0        0.021599    4.426298    2.136261
 ---------------------------------------------------------------------
 Rotational constants (GHZ):           0.2328159           0.1747621           0.1139536
 Standard basis: def2TZVP (5D, 7F)
 There are   972 symmetry adapted cartesian basis functions of A   symmetry.
 There are   862 symmetry adapted basis functions of A   symmetry.
   862 basis functions,  1362 primitive gaussians,   972 cartesian basis functions
    81 alpha electrons       81 beta electrons
       nuclear repulsion energy      1696.9934482022 Hartrees.
 NAtoms=   52 NActive=   52 NUniq=   52 SFac= 1.00D+00 NAtFMM=   60 NAOKFM=F Big=F
 Integral buffers will be    131072 words long.
 Raffenetti 2 integral format.
 Two-electron integral symmetry is turned on.
 One-electron integrals computed using PRISM.
   1 Symmetry operations used in ECPInt.
 ECPInt:  NShTT=   65703 NPrTT=  193084 LenC2=   53632 LenP2D=  110376.
 LDataN:  DoStor=T MaxTD1= 6 Len=  172
 Number of processors reduced to  27 by ecpmxn.
 NBasis=   862 RedAO= T EigKep=  5.43D-06  NBF=   862
 NBsUse=   862 1.00D-06 EigRej= -1.00D+00 NBFU=   862
 ExpMin= 9.52D-02 ExpMax= 1.36D+04 ExpMxC= 4.63D+02 IAcc=3 IRadAn=         5 AccDes= 0.00D+00
 Harris functional with IExCor= 1009 and IRadAn=       5 diagonalized for initial guess.
 HarFok:  IExCor= 1009 AccDes= 0.00D+00 IRadAn=         5 IDoV= 1 UseB2=F ITyADJ=14
 ICtDFT=  3500011 ScaDFX=  1.000000  1.000000  1.000000  1.000000
 FoFCou: FMM=F IPFlag=           0 FMFlag=      100000 FMFlg1=           0
         NFxFlg=           0 DoJE=T BraDBF=F KetDBF=T FulRan=T
         wScrn=  0.000000 ICntrl=       500 IOpCl=  0 I1Cent=   200000004 NGrid=           0
         NMat0=    1 NMatS0=      1 NMatT0=    0 NMatD0=    1 NMtDS0=    0 NMtDT0=    0
 Petite list used in FoFCou.
 Requested convergence on RMS density matrix=1.00D-08 within 128 cycles.
 Requested convergence on MAX density matrix=1.00D-06.
 Requested convergence on             energy=1.00D-06.
 No special actions if energy rises.
 Integral accuracy reduced to 1.0D-05 until final iterations.
 Rare condition: small coef for last iteration:  0.000D+00
 Rare condition: small coef for last iteration:  0.000D+00
 Rare condition: small coef for last iteration:  0.000D+00
 Problem detected with inexpensive integrals.
 Switching to full accuracy and repeating last cycle.
 SCF Done:  E(RM062X) =  -856.345548061     A.U. after   18 cycles
            NFock= 18  Conv=0.74D-08     -V/T= 2.0057

 **********************************************************************

            Population analysis using the SCF Density.

 **********************************************************************

 Orbital symmetries:
       Occupied  (A) (A) (A) (A) (A) (A) (A) (A) (A) (A) (A) (A)
                 (A) (A) (A) (A) (A) (A) (A) (A) (A) (A) (A) (A)
                 (A) (A) (A) (A) (A) (A) (A) (A) (A) (A) (A) (A)
                 (A) (A) (A) (A) (A) (A) (A) (A) (A) (A) (A) (A)
                 (A) (A) (A) (A) (A) (A) (A) (A) (A) (A) (A) (A)
                 (A) (A) (A) (A) (A) (A) (A) (A) (A) (A) (A) (A)
                 (A) (A) (A) (A) (A) (A) (A) (A) (A)
       Virtual   (A) (A) (A) (A) (A) (A) (A) (A) (A) (A) (A) (A)
                 (A) (A) (A) (A) (A) (A) (A) (A) (A) (A) (A) (A)
                 (A) (A) (A) (A) (A) (A) (A) (A) (A) (A) (A) (A)
                 (A) (A) (A) (A) (A) (A) (A) (A) (A) (A) (A) (A)
                 (A) (A) (A) (A) (A) (A) (A) (A) (A) (A) (A) (A)
                 (A) (A) (A) (A) (A) (A) (A) (A) (A) (A) (A) (A)
                 (A) (A) (A) (A) (A) (A) (A) (A) (A) (A) (A) (A)
                 (A) (A) (A) (A) (A) (A) (A) (A) (A) (A) (A) (A)
                 (A) (A) (A) (A) (A) (A) (A) (A) (A) (A) (A) (A)
                 (A) (A) (A) (A) (A) (A) (A) (A) (A) (A) (A) (A)
                 (A) (A) (A) (A) (A) (A) (A) (A) (A) (A) (A) (A)
                 (A) (A) (A) (A) (A) (A) (A) (A) (A) (A) (A) (A)
                 (A) (A) (A) (A) (A) (A) (A) (A) (A) (A) (A) (A)
                 (A) (A) (A) (A) (A) (A) (A) (A) (A) (A) (A) (A)
                 (A) (A) (A) (A) (A) (A) (A) (A) (A) (A) (A) (A)
                 (A) (A) (A) (A) (A) (A) (A) (A) (A) (A) (A) (A)
                 (A) (A) (A) (A) (A) (A) (A) (A) (A) (A) (A) (A)
                 (A) (A) (A) (A) (A) (A) (A) (A) (A) (A) (A) (A)
                 (A) (A) (A) (A) (A) (A) (A) (A) (A) (A) (A) (A)
                 (A) (A) (A) (A) (A) (A) (A) (A) (A) (A) (A) (A)
                 (A) (A) (A) (A) (A) (A) (A) (A) (A) (A) (A) (A)
                 (A) (A) (A) (A) (A) (A) (A) (A) (A) (A) (A) (A)
                 (A) (A) (A) (A) (A) (A) (A) (A) (A) (A) (A) (A)
                 (A) (A) (A) (A) (A) (A) (A) (A) (A) (A) (A) (A)
                 (A) (A) (A) (A) (A) (A) (A) (A) (A) (A) (A) (A)
                 (A) (A) (A) (A) (A) (A) (A) (A) (A) (A) (A) (A)
                 (A) (A) (A) (A) (A) (A) (A) (A) (A) (A) (A) (A)
                 (A) (A) (A) (A) (A) (A) (A) (A) (A) (A) (A) (A)
                 (A) (A) (A) (A) (A) (A) (A) (A) (A) (A) (A) (A)
                 (A) (A) (A) (A) (A) (A) (A) (A) (A) (A) (A) (A)
                 (A) (A) (A) (A) (A) (A) (A) (A) (A) (A) (A) (A)
                 (A) (A) (A) (A) (A) (A) (A) (A) (A) (A) (A) (A)
                 (A) (A) (A) (A) (A) (A) (A) (A) (A) (A) (A) (A)
                 (A) (A) (A) (A) (A) (A) (A) (A) (A) (A) (A) (A)
                 (A) (A) (A) (A) (A) (A) (A) (A) (A) (A) (A) (A)
                 (A) (A) (A) (A) (A) (A) (A) (A) (A) (A) (A) (A)
                 (A) (A) (A) (A) (A) (A) (A) (A) (A) (A) (A) (A)
                 (A) (A) (A) (A) (A) (A) (A) (A) (A) (A) (A) (A)
                 (A) (A) (A) (A) (A) (A) (A) (A) (A) (A) (A) (A)
                 (A) (A) (A) (A) (A) (A) (A) (A) (A) (A) (A) (A)
                 (A) (A) (A) (A) (A) (A) (A) (A) (A) (A) (A) (A)
                 (A) (A) (A) (A) (A) (A) (A) (A) (A) (A) (A) (A)
                 (A) (A) (A) (A) (A) (A) (A) (A) (A) (A) (A) (A)
                 (A) (A) (A) (A) (A) (A) (A) (A) (A) (A) (A) (A)
                 (A) (A) (A) (A) (A) (A) (A) (A) (A) (A) (A) (A)
                 (A) (A) (A) (A) (A) (A) (A) (A) (A) (A) (A) (A)
                 (A) (A) (A) (A) (A) (A) (A) (A) (A) (A) (A) (A)
                 (A) (A) (A) (A) (A) (A) (A) (A) (A) (A) (A) (A)
                 (A) (A) (A) (A) (A) (A) (A) (A) (A) (A) (A) (A)
                 (A) (A) (A) (A) (A) (A) (A) (A) (A) (A) (A) (A)
                 (A) (A) (A) (A) (A) (A) (A) (A) (A) (A) (A) (A)
                 (A) (A) (A) (A) (A) (A) (A) (A) (A) (A) (A) (A)
                 (A) (A) (A) (A) (A) (A) (A) (A) (A) (A) (A) (A)
                 (A) (A) (A) (A) (A) (A) (A) (A) (A) (A) (A) (A)
                 (A) (A) (A) (A) (A) (A) (A) (A) (A) (A) (A) (A)
                 (A) (A) (A) (A) (A) (A) (A) (A) (A) (A) (A) (A)
                 (A) (A) (A) (A) (A) (A) (A) (A) (A) (A) (A) (A)
                 (A) (A) (A) (A) (A) (A) (A) (A) (A) (A) (A) (A)
                 (A) (A) (A) (A) (A) (A) (A) (A) (A) (A) (A) (A)
                 (A) (A) (A) (A) (A) (A) (A) (A) (A) (A) (A) (A)
                 (A) (A) (A) (A) (A) (A) (A) (A) (A) (A) (A) (A)
                 (A) (A) (A) (A) (A) (A) (A) (A) (A) (A) (A) (A)
                 (A) (A) (A) (A) (A) (A) (A) (A) (A) (A) (A) (A)
                 (A) (A) (A) (A) (A) (A) (A) (A) (A) (A) (A) (A)
                 (A) (A) (A) (A) (A) (A) (A) (A) (A) (A) (A) (A)
                 (A)
 The electronic state is 1-A.
 Alpha  occ. eigenvalues --  -10.55319 -10.55099 -10.54644 -10.54583 -10.54204
 Alpha  occ. eigenvalues --  -10.54194 -10.54121 -10.54109 -10.53986 -10.53934
 Alpha  occ. eigenvalues --  -10.53492 -10.53459 -10.53458 -10.53440 -10.53435
 Alpha  occ. eigenvalues --  -10.53328 -10.53074 -10.52982 -10.52092 -10.52038
 Alpha  occ. eigenvalues --  -10.51800 -10.51720  -0.97460  -0.95463  -0.91565
 Alpha  occ. eigenvalues --   -0.90736  -0.87894  -0.87203  -0.84340  -0.83020
 Alpha  occ. eigenvalues --   -0.80365  -0.79982  -0.77420  -0.77110  -0.72583
 Alpha  occ. eigenvalues --   -0.72320  -0.70392  -0.68842  -0.65332  -0.64601
 Alpha  occ. eigenvalues --   -0.64031  -0.62667  -0.59405  -0.56781  -0.55316
 Alpha  occ. eigenvalues --   -0.53772  -0.53574  -0.52922  -0.51438  -0.51022
 Alpha  occ. eigenvalues --   -0.50666  -0.49796  -0.48947  -0.48827  -0.48710
 Alpha  occ. eigenvalues --   -0.48252  -0.47316  -0.45794  -0.45108  -0.44879
 Alpha  occ. eigenvalues --   -0.44548  -0.44257  -0.43785  -0.43525  -0.42202
 Alpha  occ. eigenvalues --   -0.41966  -0.41365  -0.40895  -0.40303  -0.39781
 Alpha  occ. eigenvalues --   -0.38793  -0.38233  -0.38060  -0.37840  -0.37575
 Alpha  occ. eigenvalues --   -0.36798  -0.36402  -0.32665  -0.30850  -0.28972
 Alpha  occ. eigenvalues --   -0.27460
 Alpha virt. eigenvalues --   -0.00437   0.01876   0.02548   0.05194   0.05673
 Alpha virt. eigenvalues --    0.06904   0.07908   0.08309   0.08688   0.09112
 Alpha virt. eigenvalues --    0.09745   0.10026   0.10850   0.11482   0.12120
 Alpha virt. eigenvalues --    0.12604   0.12691   0.12797   0.13274   0.13494
 Alpha virt. eigenvalues --    0.13798   0.14487   0.14725   0.15030   0.15385
 Alpha virt. eigenvalues --    0.15754   0.16029   0.16550   0.16999   0.17356
 Alpha virt. eigenvalues --    0.17962   0.18403   0.18616   0.18893   0.19120
 Alpha virt. eigenvalues --    0.19462   0.19518   0.20153   0.20390   0.20758
 Alpha virt. eigenvalues --    0.21193   0.21452   0.21965   0.22585   0.23078
 Alpha virt. eigenvalues --    0.23340   0.23675   0.24141   0.24748   0.24954
 Alpha virt. eigenvalues --    0.25407   0.25722   0.25843   0.26546   0.26849
 Alpha virt. eigenvalues --    0.27382   0.27805   0.28522   0.28878   0.29112
 Alpha virt. eigenvalues --    0.29603   0.29741   0.30586   0.30804   0.30881
 Alpha virt. eigenvalues --    0.31390   0.31836   0.32262   0.32906   0.33125
 Alpha virt. eigenvalues --    0.33948   0.34135   0.34463   0.34796   0.35242
 Alpha virt. eigenvalues --    0.36004   0.36229   0.36581   0.36944   0.37420
 Alpha virt. eigenvalues --    0.37814   0.38083   0.38353   0.39039   0.39118
 Alpha virt. eigenvalues --    0.39551   0.39965   0.40105   0.40582   0.41469
 Alpha virt. eigenvalues --    0.41552   0.42259   0.42555   0.42892   0.43555
 Alpha virt. eigenvalues --    0.43676   0.44015   0.44469   0.44585   0.44917
 Alpha virt. eigenvalues --    0.45121   0.45545   0.45714   0.46128   0.46504
 Alpha virt. eigenvalues --    0.46567   0.46940   0.47410   0.47839   0.48249
 Alpha virt. eigenvalues --    0.48416   0.49271   0.49398   0.49472   0.49702
 Alpha virt. eigenvalues --    0.49853   0.50011   0.50333   0.50671   0.51463
 Alpha virt. eigenvalues --    0.51733   0.51886   0.52118   0.52410   0.52777
 Alpha virt. eigenvalues --    0.53273   0.53312   0.53516   0.53659   0.54068
 Alpha virt. eigenvalues --    0.54509   0.54682   0.55663   0.55955   0.56703
 Alpha virt. eigenvalues --    0.57043   0.57448   0.57875   0.58844   0.59653
 Alpha virt. eigenvalues --    0.60839   0.61518   0.61978   0.62105   0.62726
 Alpha virt. eigenvalues --    0.63525   0.63737   0.64551   0.64790   0.65529
 Alpha virt. eigenvalues --    0.65613   0.66971   0.67712   0.67933   0.68500
 Alpha virt. eigenvalues --    0.68807   0.69430   0.69964   0.70596   0.71467
 Alpha virt. eigenvalues --    0.72044   0.72685   0.73731   0.73985   0.74319
 Alpha virt. eigenvalues --    0.74627   0.74864   0.75184   0.76041   0.76569
 Alpha virt. eigenvalues --    0.76993   0.77766   0.78244   0.79060   0.79542
 Alpha virt. eigenvalues --    0.80031   0.80886   0.81783   0.83002   0.83490
 Alpha virt. eigenvalues --    0.83941   0.84499   0.85120   0.85337   0.85930
 Alpha virt. eigenvalues --    0.86125   0.87382   0.87615   0.88195   0.88729
 Alpha virt. eigenvalues --    0.89420   0.89865   0.90677   0.90692   0.91607
 Alpha virt. eigenvalues --    0.92636   0.93085   0.93329   0.93876   0.94674
 Alpha virt. eigenvalues --    0.94878   0.96088   0.96690   0.96914   0.97562
 Alpha virt. eigenvalues --    0.98043   0.98647   0.98964   1.00419   1.01410
 Alpha virt. eigenvalues --    1.01748   1.03340   1.03566   1.04007   1.04176
 Alpha virt. eigenvalues --    1.05061   1.06088   1.07078   1.07553   1.07765
 Alpha virt. eigenvalues --    1.08181   1.08699   1.08987   1.11029   1.11964
 Alpha virt. eigenvalues --    1.12157   1.12657   1.12874   1.13875   1.14402
 Alpha virt. eigenvalues --    1.14596   1.16605   1.17240   1.18223   1.18871
 Alpha virt. eigenvalues --    1.19396   1.19938   1.20602   1.21110   1.21572
 Alpha virt. eigenvalues --    1.22267   1.22942   1.23609   1.23985   1.25529
 Alpha virt. eigenvalues --    1.25846   1.26480   1.26519   1.27132   1.27517
 Alpha virt. eigenvalues --    1.27869   1.28650   1.30846   1.31362   1.31976
 Alpha virt. eigenvalues --    1.32641   1.33138   1.33299   1.33793   1.34707
 Alpha virt. eigenvalues --    1.34901   1.35250   1.36512   1.37766   1.38477
 Alpha virt. eigenvalues --    1.38833   1.39522   1.40112   1.40539   1.41876
 Alpha virt. eigenvalues --    1.42663   1.43216   1.44412   1.45843   1.46908
 Alpha virt. eigenvalues --    1.47646   1.48496   1.48910   1.49672   1.49903
 Alpha virt. eigenvalues --    1.50600   1.51014   1.52055   1.53229   1.55642
 Alpha virt. eigenvalues --    1.56117   1.57071   1.57536   1.58382   1.59007
 Alpha virt. eigenvalues --    1.59589   1.59689   1.60244   1.60558   1.60678
 Alpha virt. eigenvalues --    1.61136   1.61497   1.62063   1.62464   1.62613
 Alpha virt. eigenvalues --    1.63184   1.63703   1.64295   1.64728   1.65369
 Alpha virt. eigenvalues --    1.65389   1.66612   1.66787   1.66953   1.67203
 Alpha virt. eigenvalues --    1.67339   1.67948   1.68197   1.69072   1.69343
 Alpha virt. eigenvalues --    1.70293   1.71031   1.71714   1.71985   1.72896
 Alpha virt. eigenvalues --    1.74161   1.74693   1.75788   1.75919   1.76651
 Alpha virt. eigenvalues --    1.77002   1.77912   1.78102   1.78758   1.79819
 Alpha virt. eigenvalues --    1.79900   1.80599   1.81440   1.81871   1.83078
 Alpha virt. eigenvalues --    1.83656   1.84509   1.85655   1.86943   1.87652
 Alpha virt. eigenvalues --    1.88333   1.88740   1.89721   1.90665   1.91881
 Alpha virt. eigenvalues --    1.92570   1.93131   1.94939   1.95691   1.95977
 Alpha virt. eigenvalues --    1.97471   1.98353   1.98540   1.99416   1.99870
 Alpha virt. eigenvalues --    2.01213   2.01551   2.02361   2.02680   2.03087
 Alpha virt. eigenvalues --    2.03892   2.04558   2.05480   2.06094   2.06587
 Alpha virt. eigenvalues --    2.07101   2.07693   2.08355   2.09157   2.10202
 Alpha virt. eigenvalues --    2.10680   2.11101   2.12376   2.13053   2.13499
 Alpha virt. eigenvalues --    2.14041   2.14295   2.15071   2.16010   2.17684
 Alpha virt. eigenvalues --    2.17700   2.19459   2.20212   2.21282   2.22202
 Alpha virt. eigenvalues --    2.22589   2.23538   2.23660   2.24075   2.25488
 Alpha virt. eigenvalues --    2.26001   2.27314   2.27889   2.28606   2.28864
 Alpha virt. eigenvalues --    2.29701   2.31671   2.31988   2.33001   2.33789
 Alpha virt. eigenvalues --    2.34395   2.35716   2.36327   2.37306   2.38009
 Alpha virt. eigenvalues --    2.38318   2.39257   2.39545   2.39720   2.41244
 Alpha virt. eigenvalues --    2.41391   2.41774   2.42559   2.43584   2.43811
 Alpha virt. eigenvalues --    2.44047   2.44458   2.45929   2.46712   2.47622
 Alpha virt. eigenvalues --    2.48022   2.48468   2.48652   2.49096   2.49854
 Alpha virt. eigenvalues --    2.50161   2.51014   2.51975   2.52968   2.53536
 Alpha virt. eigenvalues --    2.54215   2.54969   2.55194   2.55938   2.56458
 Alpha virt. eigenvalues --    2.56880   2.57427   2.57821   2.58660   2.59662
 Alpha virt. eigenvalues --    2.59966   2.60843   2.61432   2.61678   2.61971
 Alpha virt. eigenvalues --    2.62273   2.62775   2.63079   2.63782   2.64033
 Alpha virt. eigenvalues --    2.65009   2.66020   2.66361   2.66705   2.67295
 Alpha virt. eigenvalues --    2.67637   2.68076   2.68510   2.68824   2.68914
 Alpha virt. eigenvalues --    2.69558   2.69730   2.69774   2.70519   2.70718
 Alpha virt. eigenvalues --    2.71859   2.72976   2.74063   2.74716   2.75272
 Alpha virt. eigenvalues --    2.75888   2.76177   2.76719   2.77065   2.77819
 Alpha virt. eigenvalues --    2.77983   2.78924   2.78985   2.79340   2.79946
 Alpha virt. eigenvalues --    2.80595   2.80949   2.82130   2.82721   2.83425
 Alpha virt. eigenvalues --    2.83766   2.84485   2.84929   2.85386   2.85972
 Alpha virt. eigenvalues --    2.86338   2.86945   2.87144   2.88150   2.88803
 Alpha virt. eigenvalues --    2.89088   2.89788   2.90585   2.90667   2.91058
 Alpha virt. eigenvalues --    2.92156   2.92642   2.93863   2.95317   2.96028
 Alpha virt. eigenvalues --    2.96358   2.97334   2.97719   2.98511   2.99820
 Alpha virt. eigenvalues --    3.01024   3.01312   3.03246   3.04432   3.05123
 Alpha virt. eigenvalues --    3.05283   3.06887   3.07564   3.07766   3.08484
 Alpha virt. eigenvalues --    3.09092   3.10344   3.10442   3.10970   3.11447
 Alpha virt. eigenvalues --    3.12042   3.12221   3.12534   3.13503   3.14574
 Alpha virt. eigenvalues --    3.14972   3.15358   3.15794   3.16186   3.16683
 Alpha virt. eigenvalues --    3.17196   3.17392   3.18190   3.18625   3.19122
 Alpha virt. eigenvalues --    3.19493   3.20261   3.21099   3.21134   3.21930
 Alpha virt. eigenvalues --    3.22628   3.23593   3.24464   3.24874   3.25444
 Alpha virt. eigenvalues --    3.26141   3.26654   3.27109   3.27745   3.28759
 Alpha virt. eigenvalues --    3.29007   3.29707   3.30100   3.30905   3.31613
 Alpha virt. eigenvalues --    3.31793   3.32541   3.33113   3.33562   3.33828
 Alpha virt. eigenvalues --    3.33971   3.34399   3.34563   3.35424   3.36472
 Alpha virt. eigenvalues --    3.36622   3.37131   3.37954   3.38112   3.38203
 Alpha virt. eigenvalues --    3.39119   3.39843   3.40052   3.40159   3.40814
 Alpha virt. eigenvalues --    3.41085   3.41667   3.42889   3.43285   3.43796
 Alpha virt. eigenvalues --    3.44182   3.45401   3.45734   3.46526   3.46591
 Alpha virt. eigenvalues --    3.47391   3.48039   3.48346   3.48891   3.49696
 Alpha virt. eigenvalues --    3.49906   3.50561   3.50928   3.51609   3.52783
 Alpha virt. eigenvalues --    3.53111   3.53478   3.53867   3.54121   3.54811
 Alpha virt. eigenvalues --    3.55995   3.56512   3.57070   3.57325   3.58005
 Alpha virt. eigenvalues --    3.58616   3.59025   3.59514   3.60190   3.60826
 Alpha virt. eigenvalues --    3.61784   3.62680   3.63367   3.63706   3.64191
 Alpha virt. eigenvalues --    3.64680   3.65235   3.65770   3.66422   3.67170
 Alpha virt. eigenvalues --    3.68037   3.69317   3.69741   3.70122   3.71877
 Alpha virt. eigenvalues --    3.73394   3.74099   3.75798   3.75995   3.77518
 Alpha virt. eigenvalues --    3.77594   3.78714   3.80323   3.82036   3.82791
 Alpha virt. eigenvalues --    3.83337   3.85015   3.86056   3.88188   3.89560
 Alpha virt. eigenvalues --    3.89944   3.91376   3.92712   3.94950   3.95375
 Alpha virt. eigenvalues --    3.96277   3.97305   3.97763   3.97837   3.99010
 Alpha virt. eigenvalues --    4.00067   4.01588   4.02161   4.02597   4.03520
 Alpha virt. eigenvalues --    4.04141   4.04570   4.05216   4.06597   4.07758
 Alpha virt. eigenvalues --    4.08177   4.08905   4.10006   4.11202   4.11936
 Alpha virt. eigenvalues --    4.12325   4.13704   4.13904   4.14473   4.16140
 Alpha virt. eigenvalues --    4.16669   4.17815   4.18339   4.18537   4.19128
 Alpha virt. eigenvalues --    4.20246   4.20793   4.21024   4.21515   4.22872
 Alpha virt. eigenvalues --    4.23402   4.24971   4.25586   4.26478   4.27881
 Alpha virt. eigenvalues --    4.30225   4.31366   4.32189   4.33911   4.34438
 Alpha virt. eigenvalues --    4.35423   4.36872   4.37319   4.37774   4.38336
 Alpha virt. eigenvalues --    4.38943   4.39820   4.40966   4.42332   4.43468
 Alpha virt. eigenvalues --    4.45224   4.45840   4.46822   4.47463   4.49755
 Alpha virt. eigenvalues --    4.51583   4.52368   4.52541   4.54787   4.56453
 Alpha virt. eigenvalues --    4.60720   4.61508   4.61916   4.62828   4.65169
 Alpha virt. eigenvalues --    4.65514   4.66016   4.67312   4.68779   4.69525
 Alpha virt. eigenvalues --    4.72299   4.73388   4.74490   4.75669   4.77737
 Alpha virt. eigenvalues --    4.78122   4.79584   4.81079   4.82499   4.83969
 Alpha virt. eigenvalues --    4.85124   4.86687   4.88753   4.89670   4.90770
 Alpha virt. eigenvalues --    4.94690   4.98544   5.01741   5.05631   5.06145
 Alpha virt. eigenvalues --    5.12980   5.17551   5.22361   5.25052   5.26889
 Alpha virt. eigenvalues --    5.27134   5.35533   5.38222   5.40332   5.43502
 Alpha virt. eigenvalues --    5.48398   5.55703   5.60078   5.76266  22.16633
 Alpha virt. eigenvalues --   22.44284  22.47142  22.48343  22.48811  22.49563
 Alpha virt. eigenvalues --   22.60187  22.62755  22.67281  22.68818  22.70403
 Alpha virt. eigenvalues --   22.70760  22.71570  22.75205  22.84976  22.87856
 Alpha virt. eigenvalues --   22.96112  22.96567  23.11857  23.12466  23.31769
 Alpha virt. eigenvalues --   23.49061
          Condensed to atoms (all electrons):
 Mulliken charges:
               1
     1  C   -0.210597
     2  C   -0.151599
     3  C   -0.146501
     4  C   -0.153231
     5  C   -0.211637
     6  C    0.097735
     7  H    0.140940
     8  H    0.163146
     9  H    0.143546
    10  H    0.163502
    11  C   -0.237935
    12  C    0.190950
    13  C   -0.286718
    14  C    0.128850
    15  C   -0.292992
    16  C    0.166034
    17  H    0.172159
    18  H    0.193815
    19  H    0.143409
    20  H    0.158032
    21  C   -0.471705
    22  H    0.169194
    23  H    0.175491
    24  C   -0.470986
    25  H    0.170530
    26  H    0.187483
    27  C   -0.296577
    28  H    0.161464
    29  H    0.155845
    30  C   -0.284398
    31  H    0.148466
    32  H    0.154266
    33  C   -0.091661
    34  H    0.128976
    35  C   -0.125427
    36  H    0.153666
    37  C   -0.430699
    38  H    0.141509
    39  H    0.141733
    40  C   -0.426262
    41  H    0.144170
    42  H    0.128125
    43  H    0.143374
    44  H    0.146847
    45  C   -0.452903
    46  H    0.145784
    47  H    0.146212
    48  H    0.143540
    49  C   -0.432471
    50  H    0.144192
    51  H    0.139509
    52  H    0.141804
 Sum of Mulliken charges =  -0.00000
 Mulliken charges with hydrogens summed into heavy atoms:
               1
     1  C   -0.047095
     2  C   -0.008053
     3  C   -0.005561
     4  C   -0.009821
     5  C   -0.048491
     6  C    0.097735
    11  C   -0.079904
    12  C    0.190950
    13  C   -0.114559
    14  C    0.128850
    15  C   -0.099176
    16  C    0.166034
    21  C   -0.127019
    24  C   -0.112973
    27  C    0.020732
    30  C    0.018334
    33  C    0.037315
    35  C    0.028238
    37  C   -0.004083
    40  C   -0.007120
    45  C   -0.017367
    49  C   -0.006965
 Electronic spatial extent (au):  <R**2>=          10042.7492
 Charge=             -0.0000 electrons
 Dipole moment (field-independent basis, Debye):
    X=             -0.4566    Y=              0.2578    Z=              0.0302  Tot=              0.5253
 Quadrupole moment (field-independent basis, Debye-Ang):
   XX=           -129.6222   YY=           -133.5019   ZZ=           -139.1894
   XY=             -1.6492   XZ=             -0.5520   YZ=             -5.8030
 Traceless Quadrupole moment (field-independent basis, Debye-Ang):
   XX=              4.4823   YY=              0.6027   ZZ=             -5.0849
   XY=             -1.6492   XZ=             -0.5520   YZ=             -5.8030
 Octapole moment (field-independent basis, Debye-Ang**2):
  XXX=              9.2783  YYY=             -2.6589  ZZZ=              6.5124  XYY=             12.3856
  XXY=            -16.5075  XXZ=            -17.8531  XZZ=             -1.7141  YZZ=              0.4596
  YYZ=             14.3550  XYZ=             -3.6816
 Hexadecapole moment (field-independent basis, Debye-Ang**3):
 XXXX=          -7381.1147 YYYY=          -5479.3260 ZZZZ=          -1119.7269 XXXY=           -136.0605
 XXXZ=            -34.0737 YYYX=            -66.0399 YYYZ=           -145.9971 ZZZX=             11.4239
 ZZZY=            -23.9896 XXYY=          -2100.9090 XXZZ=          -1463.8935 YYZZ=          -1080.7421
 XXYZ=             -8.0588 YYXZ=             43.6044 ZZXY=              4.5256
 N-N= 1.696993448202D+03 E-N=-5.376986088171D+03  KE= 8.515337433012D+02
 ******************************Gaussian NBO Version 3.1******************************
             N A T U R A L   A T O M I C   O R B I T A L   A N D
          N A T U R A L   B O N D   O R B I T A L   A N A L Y S I S
 ******************************Gaussian NBO Version 3.1******************************
       /RESON  / : Allow strongly delocalized NBO set

 Analyzing the SCF density

 Job title: Structure697                                                    

 Storage needed:   2238158 in NPA,   2977497 in NBO (1048561960 available)
 GSVD:  LWork=      264810 too small for GESVD, short by      687275 words or      687275 for optimal perf.


 NATURAL POPULATIONS:  Natural atomic orbital occupancies 
                                                          
   NAO  Atom  No  lang   Type(AO)    Occupancy      Energy
 ----------------------------------------------------------
     1    C    1  S      Cor( 1S)     1.99916     -10.37957
     2    C    1  S      Val( 2S)     0.96962      -0.22525
     3    C    1  S      Ryd( 4S)     0.00091       1.47248
     4    C    1  S      Ryd( 3S)     0.00009       1.45167
     5    C    1  S      Ryd( 5S)     0.00001      21.30958
     6    C    1  px     Val( 2p)     1.04153      -0.06654
     7    C    1  px     Ryd( 3p)     0.00276       1.00203
     8    C    1  px     Ryd( 4p)     0.00026       2.53042
     9    C    1  py     Val( 2p)     1.08065      -0.08731
    10    C    1  py     Ryd( 3p)     0.00290       1.03314
    11    C    1  py     Ryd( 4p)     0.00020       1.98893
    12    C    1  pz     Val( 2p)     1.08803      -0.08832
    13    C    1  pz     Ryd( 3p)     0.00285       0.94166
    14    C    1  pz     Ryd( 4p)     0.00026       1.98600
    15    C    1  dxy    Ryd( 3d)     0.00097       1.73879
    16    C    1  dxy    Ryd( 4d)     0.00030       3.40836
    17    C    1  dxz    Ryd( 3d)     0.00121       1.57731
    18    C    1  dxz    Ryd( 4d)     0.00028       3.29113
    19    C    1  dyz    Ryd( 3d)     0.00089       1.68367
    20    C    1  dyz    Ryd( 4d)     0.00036       3.33004
    21    C    1  dx2y2  Ryd( 3d)     0.00128       1.56105
    22    C    1  dx2y2  Ryd( 4d)     0.00041       3.30420
    23    C    1  dz2    Ryd( 3d)     0.00057       1.49801
    24    C    1  dz2    Ryd( 4d)     0.00018       3.10006
    25    C    1  f(0)   Ryd( 4f)     0.00012       3.50171
    26    C    1  f(C1)  Ryd( 4f)     0.00013       3.62230
    27    C    1  f(S1)  Ryd( 4f)     0.00015       3.51930
    28    C    1  f(C2)  Ryd( 4f)     0.00011       3.76725
    29    C    1  f(S2)  Ryd( 4f)     0.00016       3.74246
    30    C    1  f(C3)  Ryd( 4f)     0.00015       3.82508
    31    C    1  f(S3)  Ryd( 4f)     0.00008       3.78736
 
    32    C    2  S      Cor( 1S)     1.99924     -10.38071
    33    C    2  S      Val( 2S)     0.97553      -0.23237
    34    C    2  S      Ryd( 3S)     0.00084       1.19421
    35    C    2  S      Ryd( 4S)     0.00007       1.29740
    36    C    2  S      Ryd( 5S)     0.00000      21.64106
    37    C    2  px     Val( 2p)     1.13922      -0.07518
    38    C    2  px     Ryd( 3p)     0.00406       1.12817
    39    C    2  px     Ryd( 4p)     0.00020       1.97295
    40    C    2  py     Val( 2p)     1.02816      -0.08192
    41    C    2  py     Ryd( 3p)     0.00280       0.89073
    42    C    2  py     Ryd( 4p)     0.00029       1.90143
    43    C    2  pz     Val( 2p)     1.04497      -0.08799
    44    C    2  pz     Ryd( 3p)     0.00286       0.90962
    45    C    2  pz     Ryd( 4p)     0.00027       1.81087
    46    C    2  dxy    Ryd( 3d)     0.00130       1.55238
    47    C    2  dxy    Ryd( 4d)     0.00030       3.23131
    48    C    2  dxz    Ryd( 3d)     0.00095       1.60225
    49    C    2  dxz    Ryd( 4d)     0.00043       3.22594
    50    C    2  dyz    Ryd( 3d)     0.00097       1.67619
    51    C    2  dyz    Ryd( 4d)     0.00021       3.41140
    52    C    2  dx2y2  Ryd( 3d)     0.00063       1.66855
    53    C    2  dx2y2  Ryd( 4d)     0.00049       3.27281
    54    C    2  dz2    Ryd( 3d)     0.00051       1.45791
    55    C    2  dz2    Ryd( 4d)     0.00023       3.05426
    56    C    2  f(0)   Ryd( 4f)     0.00009       3.56312
    57    C    2  f(C1)  Ryd( 4f)     0.00004       3.49215
    58    C    2  f(S1)  Ryd( 4f)     0.00018       3.64325
    59    C    2  f(C2)  Ryd( 4f)     0.00015       3.73481
    60    C    2  f(S2)  Ryd( 4f)     0.00016       3.73093
    61    C    2  f(C3)  Ryd( 4f)     0.00006       3.73438
    62    C    2  f(S3)  Ryd( 4f)     0.00007       3.66541
 
    63    C    3  S      Cor( 1S)     1.99924     -10.37930
    64    C    3  S      Val( 2S)     0.97610      -0.23284
    65    C    3  S      Ryd( 3S)     0.00085       1.20762
    66    C    3  S      Ryd( 4S)     0.00008       1.33008
    67    C    3  S      Ryd( 5S)     0.00000      21.61103
    68    C    3  px     Val( 2p)     1.09352      -0.07164
    69    C    3  px     Ryd( 3p)     0.00380       1.04250
    70    C    3  px     Ryd( 4p)     0.00027       2.07858
    71    C    3  py     Val( 2p)     1.09067      -0.08593
    72    C    3  py     Ryd( 3p)     0.00334       0.97460
    73    C    3  py     Ryd( 4p)     0.00028       1.82739
    74    C    3  pz     Val( 2p)     1.03585      -0.08699
    75    C    3  pz     Ryd( 3p)     0.00281       0.87195
    76    C    3  pz     Ryd( 4p)     0.00033       1.81938
    77    C    3  dxy    Ryd( 3d)     0.00067       1.74605
    78    C    3  dxy    Ryd( 4d)     0.00053       3.25044
    79    C    3  dxz    Ryd( 3d)     0.00084       1.71677
    80    C    3  dxz    Ryd( 4d)     0.00030       3.29876
    81    C    3  dyz    Ryd( 3d)     0.00109       1.63774
    82    C    3  dyz    Ryd( 4d)     0.00022       3.25185
    83    C    3  dx2y2  Ryd( 3d)     0.00109       1.57290
    84    C    3  dx2y2  Ryd( 4d)     0.00030       3.09882
    85    C    3  dz2    Ryd( 3d)     0.00040       1.54330
    86    C    3  dz2    Ryd( 4d)     0.00030       3.02940
    87    C    3  f(0)   Ryd( 4f)     0.00007       3.56502
    88    C    3  f(C1)  Ryd( 4f)     0.00010       3.58541
    89    C    3  f(S1)  Ryd( 4f)     0.00011       3.58043
    90    C    3  f(C2)  Ryd( 4f)     0.00019       3.79353
    91    C    3  f(S2)  Ryd( 4f)     0.00015       3.68240
    92    C    3  f(C3)  Ryd( 4f)     0.00005       3.68733
    93    C    3  f(S3)  Ryd( 4f)     0.00008       3.62378
 
    94    C    4  S      Cor( 1S)     1.99924     -10.38078
    95    C    4  S      Val( 2S)     0.97550      -0.23245
    96    C    4  S      Ryd( 3S)     0.00084       1.19239
    97    C    4  S      Ryd( 4S)     0.00007       1.29401
    98    C    4  S      Ryd( 5S)     0.00000      21.63870
    99    C    4  px     Val( 2p)     1.04900      -0.06936
   100    C    4  px     Ryd( 3p)     0.00352       0.98451
   101    C    4  px     Ryd( 4p)     0.00024       2.13053
   102    C    4  py     Val( 2p)     1.07594      -0.08507
   103    C    4  py     Ryd( 3p)     0.00310       0.97200
   104    C    4  py     Ryd( 4p)     0.00027       1.80597
   105    C    4  pz     Val( 2p)     1.08763      -0.09094
   106    C    4  pz     Ryd( 3p)     0.00310       0.97132
   107    C    4  pz     Ryd( 4p)     0.00024       1.74715
   108    C    4  dxy    Ryd( 3d)     0.00103       1.65457
   109    C    4  dxy    Ryd( 4d)     0.00036       3.34371
   110    C    4  dxz    Ryd( 3d)     0.00118       1.57123
   111    C    4  dxz    Ryd( 4d)     0.00033       3.22588
   112    C    4  dyz    Ryd( 3d)     0.00073       1.65289
   113    C    4  dyz    Ryd( 4d)     0.00038       3.30606
   114    C    4  dx2y2  Ryd( 3d)     0.00092       1.62809
   115    C    4  dx2y2  Ryd( 4d)     0.00036       3.26843
   116    C    4  dz2    Ryd( 3d)     0.00050       1.45294
   117    C    4  dz2    Ryd( 4d)     0.00022       3.04620
   118    C    4  f(0)   Ryd( 4f)     0.00011       3.47474
   119    C    4  f(C1)  Ryd( 4f)     0.00009       3.59553
   120    C    4  f(S1)  Ryd( 4f)     0.00014       3.47839
   121    C    4  f(C2)  Ryd( 4f)     0.00010       3.76917
   122    C    4  f(S2)  Ryd( 4f)     0.00013       3.73067
   123    C    4  f(C3)  Ryd( 4f)     0.00010       3.79284
   124    C    4  f(S3)  Ryd( 4f)     0.00008       3.72180
 
   125    C    5  S      Cor( 1S)     1.99916     -10.37968
   126    C    5  S      Val( 2S)     0.96952      -0.22531
   127    C    5  S      Ryd( 4S)     0.00090       1.46835
   128    C    5  S      Ryd( 3S)     0.00009       1.45253
   129    C    5  S      Ryd( 5S)     0.00001      21.28764
   130    C    5  px     Val( 2p)     1.13994      -0.07599
   131    C    5  px     Ryd( 3p)     0.00388       1.15869
   132    C    5  px     Ryd( 4p)     0.00016       2.22420
   133    C    5  py     Val( 2p)     1.02347      -0.08138
   134    C    5  py     Ryd( 3p)     0.00220       0.92925
   135    C    5  py     Ryd( 4p)     0.00025       2.14762
   136    C    5  pz     Val( 2p)     1.04702      -0.08521
   137    C    5  pz     Ryd( 3p)     0.00244       0.88561
   138    C    5  pz     Ryd( 4p)     0.00030       2.14134
   139    C    5  dxy    Ryd( 3d)     0.00142       1.57411
   140    C    5  dxy    Ryd( 4d)     0.00024       3.26110
   141    C    5  dxz    Ryd( 3d)     0.00063       1.69071
   142    C    5  dxz    Ryd( 4d)     0.00036       3.28076
   143    C    5  dyz    Ryd( 3d)     0.00143       1.62694
   144    C    5  dyz    Ryd( 4d)     0.00021       3.49106
   145    C    5  dx2y2  Ryd( 3d)     0.00070       1.68807
   146    C    5  dx2y2  Ryd( 4d)     0.00051       3.29802
   147    C    5  dz2    Ryd( 3d)     0.00073       1.47799
   148    C    5  dz2    Ryd( 4d)     0.00021       3.09998
   149    C    5  f(0)   Ryd( 4f)     0.00013       3.61991
   150    C    5  f(C1)  Ryd( 4f)     0.00005       3.51472
   151    C    5  f(S1)  Ryd( 4f)     0.00023       3.68361
   152    C    5  f(C2)  Ryd( 4f)     0.00017       3.79324
   153    C    5  f(S2)  Ryd( 4f)     0.00018       3.71522
   154    C    5  f(C3)  Ryd( 4f)     0.00006       3.76107
   155    C    5  f(S3)  Ryd( 4f)     0.00008       3.67703
 
   156    C    6  S      Cor( 1S)     1.99911     -10.38921
   157    C    6  S      Val( 2S)     0.91084      -0.19868
   158    C    6  S      Ryd( 4S)     0.00077       1.62879
   159    C    6  S      Ryd( 3S)     0.00007       1.47503
   160    C    6  S      Ryd( 5S)     0.00000      21.40108
   161    C    6  px     Val( 2p)     1.05143      -0.06646
   162    C    6  px     Ryd( 3p)     0.00509       1.15329
   163    C    6  px     Ryd( 4p)     0.00044       1.66506
   164    C    6  py     Val( 2p)     1.02945      -0.07589
   165    C    6  py     Ryd( 3p)     0.00495       1.06686
   166    C    6  py     Ryd( 4p)     0.00035       1.64705
   167    C    6  pz     Val( 2p)     1.03708      -0.08600
   168    C    6  pz     Ryd( 3p)     0.00211       0.94810
   169    C    6  pz     Ryd( 4p)     0.00032       1.46063
   170    C    6  dxy    Ryd( 3d)     0.00082       2.06679
   171    C    6  dxy    Ryd( 4d)     0.00044       3.53645
   172    C    6  dxz    Ryd( 3d)     0.00068       1.82909
   173    C    6  dxz    Ryd( 4d)     0.00034       3.40950
   174    C    6  dyz    Ryd( 3d)     0.00073       1.91895
   175    C    6  dyz    Ryd( 4d)     0.00026       3.54487
   176    C    6  dx2y2  Ryd( 3d)     0.00104       1.91583
   177    C    6  dx2y2  Ryd( 4d)     0.00034       3.44149
   178    C    6  dz2    Ryd( 3d)     0.00035       1.49933
   179    C    6  dz2    Ryd( 4d)     0.00040       3.47221
   180    C    6  f(0)   Ryd( 4f)     0.00005       3.71450
   181    C    6  f(C1)  Ryd( 4f)     0.00005       3.72140
   182    C    6  f(S1)  Ryd( 4f)     0.00007       3.76000
   183    C    6  f(C2)  Ryd( 4f)     0.00007       3.99053
   184    C    6  f(S2)  Ryd( 4f)     0.00011       3.87597
   185    C    6  f(C3)  Ryd( 4f)     0.00006       3.96335
   186    C    6  f(S3)  Ryd( 4f)     0.00005       3.96748
 
   187    H    7  S      Val( 1S)     0.78740       0.05313
   188    H    7  S      Ryd( 2S)     0.00031       1.01285
   189    H    7  S      Ryd( 3S)     0.00018       1.77882
   190    H    7  px     Ryd( 2p)     0.00020       2.80753
   191    H    7  py     Ryd( 2p)     0.00024       2.67286
   192    H    7  pz     Ryd( 2p)     0.00009       2.52265
 
   193    H    8  S      Val( 1S)     0.78516       0.05357
   194    H    8  S      Ryd( 3S)     0.00042       1.58076
   195    H    8  S      Ryd( 2S)     0.00014       1.41657
   196    H    8  px     Ryd( 2p)     0.00036       2.92439
   197    H    8  py     Ryd( 2p)     0.00009       2.58102
   198    H    8  pz     Ryd( 2p)     0.00014       2.59631
 
   199    H    9  S      Val( 1S)     0.78536       0.05254
   200    H    9  S      Ryd( 2S)     0.00032       1.10397
   201    H    9  S      Ryd( 3S)     0.00019       1.68192
   202    H    9  px     Ryd( 2p)     0.00034       2.91290
   203    H    9  py     Ryd( 2p)     0.00006       2.55297
   204    H    9  pz     Ryd( 2p)     0.00012       2.54725
 
   205    H   10  S      Val( 1S)     0.78471       0.05414
   206    H   10  S      Ryd( 3S)     0.00041       1.57904
   207    H   10  S      Ryd( 2S)     0.00014       1.39851
   208    H   10  px     Ryd( 2p)     0.00010       2.75621
   209    H   10  py     Ryd( 2p)     0.00023       2.68326
   210    H   10  pz     Ryd( 2p)     0.00026       2.66219
 
   211    C   11  S      Cor( 1S)     1.99902     -10.36803
   212    C   11  S      Val( 2S)     0.96097      -0.20940
   213    C   11  S      Ryd( 4S)     0.00058       1.67260
   214    C   11  S      Ryd( 3S)     0.00013       1.48244
   215    C   11  S      Ryd( 5S)     0.00000      21.39554
   216    C   11  px     Val( 2p)     1.10467      -0.06253
   217    C   11  px     Ryd( 3p)     0.00302       1.22153
   218    C   11  px     Ryd( 4p)     0.00026       2.24886
   219    C   11  py     Val( 2p)     1.10800      -0.06505
   220    C   11  py     Ryd( 3p)     0.00315       1.21283
   221    C   11  py     Ryd( 4p)     0.00032       2.12431
   222    C   11  pz     Val( 2p)     1.03314      -0.10613
   223    C   11  pz     Ryd( 3p)     0.00195       0.73718
   224    C   11  pz     Ryd( 4p)     0.00083       1.71767
   225    C   11  dxy    Ryd( 3d)     0.00091       2.08215
   226    C   11  dxy    Ryd( 4d)     0.00065       3.67566
   227    C   11  dxz    Ryd( 3d)     0.00042       1.51986
   228    C   11  dxz    Ryd( 4d)     0.00013       3.04274
   229    C   11  dyz    Ryd( 3d)     0.00061       1.53950
   230    C   11  dyz    Ryd( 4d)     0.00010       3.08763
   231    C   11  dx2y2  Ryd( 3d)     0.00217       1.79065
   232    C   11  dx2y2  Ryd( 4d)     0.00018       3.51225
   233    C   11  dz2    Ryd( 3d)     0.00071       1.66243
   234    C   11  dz2    Ryd( 4d)     0.00004       3.30338
   235    C   11  f(0)   Ryd( 4f)     0.00024       3.46783
   236    C   11  f(C1)  Ryd( 4f)     0.00013       3.57814
   237    C   11  f(S1)  Ryd( 4f)     0.00017       3.47857
   238    C   11  f(C2)  Ryd( 4f)     0.00003       3.59676
   239    C   11  f(S2)  Ryd( 4f)     0.00008       3.62106
   240    C   11  f(C3)  Ryd( 4f)     0.00006       4.19193
   241    C   11  f(S3)  Ryd( 4f)     0.00005       4.09845
 
   242    C   12  S      Cor( 1S)     1.99917     -10.38354
   243    C   12  S      Val( 2S)     0.91577      -0.20232
   244    C   12  S      Ryd( 4S)     0.00068       1.75176
   245    C   12  S      Ryd( 3S)     0.00010       1.50487
   246    C   12  S      Ryd( 5S)     0.00000      21.18173
   247    C   12  px     Val( 2p)     1.02571      -0.04503
   248    C   12  px     Ryd( 3p)     0.00455       1.42796
   249    C   12  px     Ryd( 4p)     0.00018       2.49068
   250    C   12  py     Val( 2p)     1.05006      -0.05487
   251    C   12  py     Ryd( 3p)     0.00354       1.08347
   252    C   12  py     Ryd( 4p)     0.00012       2.49305
   253    C   12  pz     Val( 2p)     0.98208      -0.09519
   254    C   12  pz     Ryd( 3p)     0.00267       0.79116
   255    C   12  pz     Ryd( 4p)     0.00038       1.75079
   256    C   12  dxy    Ryd( 3d)     0.00139       2.04037
   257    C   12  dxy    Ryd( 4d)     0.00054       3.56210
   258    C   12  dxz    Ryd( 3d)     0.00053       1.76177
   259    C   12  dxz    Ryd( 4d)     0.00024       3.05970
   260    C   12  dyz    Ryd( 3d)     0.00035       1.77910
   261    C   12  dyz    Ryd( 4d)     0.00028       3.10249
   262    C   12  dx2y2  Ryd( 3d)     0.00089       2.28238
   263    C   12  dx2y2  Ryd( 4d)     0.00066       3.61789
   264    C   12  dz2    Ryd( 3d)     0.00035       2.09228
   265    C   12  dz2    Ryd( 4d)     0.00011       3.34113
   266    C   12  f(0)   Ryd( 4f)     0.00017       3.56304
   267    C   12  f(C1)  Ryd( 4f)     0.00016       3.57900
   268    C   12  f(S1)  Ryd( 4f)     0.00015       3.55002
   269    C   12  f(C2)  Ryd( 4f)     0.00006       3.65974
   270    C   12  f(S2)  Ryd( 4f)     0.00005       3.70242
   271    C   12  f(C3)  Ryd( 4f)     0.00007       4.27731
   272    C   12  f(S3)  Ryd( 4f)     0.00004       4.25294
 
   273    C   13  S      Cor( 1S)     1.99905     -10.37105
   274    C   13  S      Val( 2S)     0.95976      -0.20937
   275    C   13  S      Ryd( 4S)     0.00063       1.63447
   276    C   13  S      Ryd( 3S)     0.00015       1.49523
   277    C   13  S      Ryd( 5S)     0.00000      21.34278
   278    C   13  px     Val( 2p)     1.05829      -0.05525
   279    C   13  px     Ryd( 3p)     0.00240       1.13051
   280    C   13  px     Ryd( 4p)     0.00060       1.93810
   281    C   13  py     Val( 2p)     1.15080      -0.06571
   282    C   13  py     Ryd( 3p)     0.00307       1.16248
   283    C   13  py     Ryd( 4p)     0.00028       1.70629
   284    C   13  pz     Val( 2p)     1.03006      -0.10693
   285    C   13  pz     Ryd( 3p)     0.00180       0.78391
   286    C   13  pz     Ryd( 4p)     0.00034       1.40852
   287    C   13  dxy    Ryd( 3d)     0.00131       1.94310
   288    C   13  dxy    Ryd( 4d)     0.00037       3.56431
   289    C   13  dxz    Ryd( 3d)     0.00036       1.58334
   290    C   13  dxz    Ryd( 4d)     0.00022       3.10576
   291    C   13  dyz    Ryd( 3d)     0.00057       1.54355
   292    C   13  dyz    Ryd( 4d)     0.00005       3.02950
   293    C   13  dx2y2  Ryd( 3d)     0.00115       2.04864
   294    C   13  dx2y2  Ryd( 4d)     0.00043       3.68391
   295    C   13  dz2    Ryd( 3d)     0.00089       1.68631
   296    C   13  dz2    Ryd( 4d)     0.00003       3.33333
   297    C   13  f(0)   Ryd( 4f)     0.00014       3.53733
   298    C   13  f(C1)  Ryd( 4f)     0.00009       3.75796
   299    C   13  f(S1)  Ryd( 4f)     0.00011       3.49525
   300    C   13  f(C2)  Ryd( 4f)     0.00005       3.62832
   301    C   13  f(S2)  Ryd( 4f)     0.00003       3.63697
   302    C   13  f(C3)  Ryd( 4f)     0.00008       4.18626
   303    C   13  f(S3)  Ryd( 4f)     0.00005       4.06696
 
   304    C   14  S      Cor( 1S)     1.99912     -10.38677
   305    C   14  S      Val( 2S)     0.90671      -0.19087
   306    C   14  S      Ryd( 3S)     0.00064       1.61672
   307    C   14  S      Ryd( 4S)     0.00008       1.72617
   308    C   14  S      Ryd( 5S)     0.00000      21.16124
   309    C   14  px     Val( 2p)     1.05827      -0.05556
   310    C   14  px     Ryd( 3p)     0.00490       1.12708
   311    C   14  px     Ryd( 4p)     0.00043       1.98335
   312    C   14  py     Val( 2p)     1.05197      -0.05829
   313    C   14  py     Ryd( 3p)     0.00417       1.09526
   314    C   14  py     Ryd( 4p)     0.00042       1.97860
   315    C   14  pz     Val( 2p)     0.99521      -0.09872
   316    C   14  pz     Ryd( 3p)     0.00295       0.75097
[...]
 0480,0.00000498,-0.00000900,0.00000435,-0.00000072,0.00000013,-0.00000
 113,0.00000030,-0.00000126,0.00000099,0.00000028,0.00000060,-0.0000002
 1,-0.00000096,-0.00000072,-0.00000313,-0.00000419,-0.00011400,-0.00003
 855,0.00000598,0.00003856,0.00003965,-0.00002520,0.00002319,-0.0000291
 0,0.00003135,-0.00005901,-0.00001455,0.00005060,-0.00004313,-0.0001123
 5,-0.00005852,0.00003485,-0.00008991,-0.00008435,-0.00000216,-0.000003
 71,0.00000456,0.00001406,0.00000468,-0.00001988,-0.00000050,-0.0000015
 2,0.00000119,0.00003293,-0.00000870,0.00000263,0.00000626,-0.00000579,
 -0.00000265,-0.00000031,-0.00000027,-0.00000021,-0.00000692,-0.0000018
 8,-0.00000255,0.00024908,0.00043243,0.00066915,-0.00001884,0.00011116,
 0.00011496,-0.00003978,-0.00007022,-0.00001512,-0.00001381,0.00001087,
 0.00002835,0.00000093,-0.00000148,-0.00000156,0.00000091,0.00000575,0.
 00000610,-0.00304044,-0.00753476,-0.01055307,0.00028281,0.00168691,0.0
 0117850,0.00007710,0.00128479,0.00044386,-0.00000003,-0.00000353,-0.00
 000710,-0.00000037,0.00000061,0.00000130,-0.03184512,-0.01762671,-0.18
 491843,-0.00763773,-0.00441916,-0.02277503,-0.00000440,0.00000227,0.00
 000952,-0.00000098,-0.00000036,-0.00000017,-0.00000467,0.00000139,-0.0
 0000629,-0.00765519,0.00155645,-0.01073830,0.00143739,-0.00068005,0.00
 131127,0.00017436,-0.00015428,0.00100941,0.00000223,-0.00000273,-0.000
 00461,0.00110863,-0.00062025,0.00057608,0.00000060,-0.00000023,0.00000
 107,0.00000020,-0.00000039,-0.00000129,0.00000058,-0.00000190,-0.00000
 266,0.00000049,0.00000055,0.00000011,-0.02180009,-0.01162652,0.4833985
 9,-0.00000374,0.00000379,-0.00000049,-0.00000183,0.00000262,0.00000103
 ,-0.00000239,0.00000378,-0.00000185,-0.00000155,-0.00000088,0.,0.00000
 429,0.00000457,-0.00000107,0.00000760,-0.00000721,0.00000675,-0.000000
 01,0.00000033,-0.00000177,-0.00000284,-0.00000134,0.00000172,-0.000001
 10,-0.00000047,-0.00000285,0.00000211,-0.00000324,-0.00000082,0.000021
 79,0.00003254,-0.00002812,-0.00000244,-0.00000371,0.00001156,0.0000014
 2,0.00000603,-0.00001439,-0.00000011,0.00000438,0.00000610,0.00005139,
 0.00000428,-0.00001037,-0.00011997,-0.00007255,0.00000163,0.00000014,0
 .,0.00000167,-0.00000969,-0.00000510,-0.00001192,0.00000082,-0.0000000
 9,-0.00000004,-0.00000453,-0.00001495,-0.00000730,0.00000249,0.0000048
 3,-0.00000092,-0.00000141,-0.00000460,-0.00000160,0.00000034,-0.000001
 11,-0.00000115,0.00063850,-0.00064610,-0.00006961,-0.00004497,-0.00006
 834,-0.00020669,-0.00000026,0.00003985,0.00011052,0.00000153,0.0000004
 8,-0.00000602,-0.00000462,-0.00000481,0.00001195,0.00000426,0.00001453
 ,-0.00000619,-0.00056151,0.00037237,-0.00192268,0.00018470,0.00044006,
 -0.00008646,0.00032778,-0.00036542,0.00005583,0.00000091,0.00000420,-0
 .00000064,0.00000161,-0.00000621,-0.00000120,-0.00284474,-0.00886127,-
 0.00070131,0.00023238,0.00052348,0.00023583,-0.00000074,-0.00000074,0.
 00000171,-0.00000453,-0.00000314,0.00000645,0.00000123,0.00000942,-0.0
 0000423,0.00037078,-0.00121927,0.00029244,-0.00003818,-0.00005349,-0.0
 0000793,0.00007911,0.00021179,0.00018900,0.00000258,-0.00000309,-0.000
 00215,-0.00018258,0.00043051,-0.00038518,-0.00000093,-0.00000274,-0.00
 000053,0.00000155,0.00000030,0.00000046,-0.00000079,-0.00000071,-0.000
 00213,-0.00000070,-0.00000022,0.00000160,-0.05111672,-0.03149173,-0.00
 518124,0.05114470,-0.00000826,0.00000921,-0.00001524,0.00000497,0.0000
 0379,0.00000513,-0.00000439,0.00001384,-0.00000975,-0.00000172,0.00000
 149,0.00000064,-0.00001697,0.00002165,-0.00001204,0.00002578,-0.000033
 54,0.00002698,-0.00000012,0.00000198,-0.00000390,0.00000172,-0.0000108
 4,-0.00000192,-0.00000274,0.00000044,-0.00000323,0.00000899,-0.0000006
 1,0.00000623,0.00004334,0.00001522,-0.00004287,-0.00004922,0.00000690,
 0.00000420,0.00004723,0.00003052,-0.00002958,-0.00001399,-0.00000340,0
 .00002520,0.00009467,0.00001365,-0.00005706,-0.00016068,-0.00009451,0.
 00008985,0.00000640,0.00000095,-0.00001319,-0.00000893,-0.00001012,0.0
 0000421,0.00000281,0.00000467,-0.00000619,-0.00002907,0.00002268,0.000
 01085,-0.00000415,0.00001420,0.00000224,0.00000077,0.00000412,0.000006
 14,0.00000981,0.00000294,-0.00000407,0.00000119,-0.00022653,0.00039970
 ,-0.00007650,-0.00002721,-0.00015724,-0.00007915,-0.00001857,-0.000154
 60,0.00000413,-0.00002033,-0.00000310,0.00000499,0.00000669,-0.0000147
 3,-0.00000919,-0.00001790,-0.00000012,-0.00010197,0.00094954,-0.002057
 03,0.00015206,0.00025535,0.00010787,-0.00010669,0.00030917,0.00018836,
 -0.00001308,0.00000578,0.00000399,-0.00000079,0.00000711,0.00000042,0.
 00026138,-0.00485955,0.00015539,0.00018065,0.00039729,-0.00043980,0.00
 001058,-0.00000597,-0.00000544,0.00000342,0.00000612,-0.00000833,-0.00
 000509,-0.00001065,0.00000418,0.00023952,0.00054162,0.00070051,0.00005
 221,-0.00004780,-0.00006549,0.00002924,0.00036935,-0.00001192,0.000005
 51,0.00000350,0.00000563,-0.00041678,0.00046118,-0.00006883,0.00000784
 ,-0.00000055,0.00000400,0.00000644,-0.00000161,-0.00000033,-0.00000298
 ,0.00000508,0.00000691,-0.00000234,0.00000137,-0.00000297,-0.03221310,
 -0.30498783,-0.04267668,0.03503816,0.33015504,-0.00001029,0.00000562,-
 0.00000765,0.00000208,0.00000399,0.00000366,-0.00000362,0.00001060,-0.
 00000718,0.00000041,0.00000576,0.00000084,-0.00001503,0.00001867,-0.00
 000625,0.00002152,-0.00002328,0.00001766,0.00000074,0.00000040,-0.0000
 0235,0.00000553,-0.00000895,-0.00000512,-0.00000093,-0.00000004,-0.000
 00283,0.00000711,-0.00000250,0.00000241,0.00008673,0.00004767,-0.00004
 110,-0.00003223,-0.00001428,0.00002264,0.00003469,0.00003850,-0.000041
 97,0.00000387,0.00000820,-0.00000273,0.00009298,0.00005614,-0.00001280
 ,-0.00025899,-0.00012118,0.00035637,0.00000265,-0.00000092,-0.00001087
 ,-0.00001637,-0.00001929,-0.00001165,0.00000181,0.00000261,-0.00000540
 ,-0.00003035,0.00000475,-0.00000035,-0.00000614,0.00001371,-0.00000121
 ,0.00000006,0.00000235,0.00000256,0.00000878,0.00000200,0.00000062,-0.
 00013333,-0.00211012,0.00018495,-0.00014349,-0.00021725,-0.00066283,-0
 .00005677,0.00003545,-0.00000049,0.00000854,-0.00001804,-0.00001896,0.
 00000468,0.00000468,-0.00000872,-0.00000543,-0.00001191,0.00000550,-0.
 00193916,0.00071282,-0.00621701,-0.00031991,-0.00007442,0.00009152,0.0
 0015467,0.00024910,-0.00009792,-0.00000208,0.00000891,0.00000748,-0.00
 000111,0.00000208,-0.00000109,-0.00413666,-0.03176851,-0.00480568,0.00
 075122,0.00025086,0.00122430,0.00000605,-0.00000555,-0.00000587,0.0000
 0276,0.00000227,-0.00000256,0.00000007,-0.00000303,0.00000525,0.001107
 62,-0.00098875,0.00117068,-0.00004202,0.00016311,-0.00003444,0.0003664
 8,0.00021473,0.00010999,0.00000080,0.00000387,0.00000404,-0.00042975,0
 .00070688,0.00006039,0.00000164,-0.00000138,0.00000019,0.00000165,0.00
 000016,0.00000084,-0.00000125,0.00000331,0.00000413,-0.00000082,0.0000
 0010,-0.00000105,-0.00511518,-0.04119893,-0.05290748,0.00736652,0.0475
 9750,0.05842783,-0.00000123,-0.00000288,0.00000558,-0.00000193,0.00000
 058,-0.00000028,0.00000068,-0.00000114,0.00000201,0.00000189,0.0000043
 6,0.00000169,-0.00000348,-0.00000176,0.00000270,-0.00000101,0.00000640
 ,-0.00000526,0.00000097,-0.00000180,0.00000068,0.00000395,-0.00000011,
 -0.00000412,0.00000206,-0.00000069,0.00000028,-0.00000023,-0.00000125,
 -0.00000338,-0.00003753,-0.00000187,0.00000987,0.00001028,0.00003226,-
 0.00001364,0.00003396,0.00000043,0.00000290,-0.00003049,0.00000331,0.0
 0001682,0.00002784,-0.00004057,-0.00002675,-0.00000751,-0.00008314,-0.
 00013948,-0.00000310,-0.00000319,-0.00000260,-0.00000166,0.00000015,-0
 .00000975,-0.00000059,-0.00000102,-0.00000124,-0.00000325,-0.00002671,
 -0.00000746,-0.00001593,-0.00000691,0.00000565,0.00000251,0.00000390,-
 0.00000142,0.00000341,0.00000468,0.00001028,0.00017719,0.00028275,-0.0
 0005662,-0.00000412,0.00002558,0.00007800,-0.00000593,-0.00000953,-0.0
 0000313,0.00002252,-0.00000117,-0.00004974,0.00000105,0.00000389,-0.00
 000409,-0.00000319,-0.00001865,0.00001647,0.00040644,0.00050476,-0.000
 18595,0.00007667,0.00030633,0.00032267,-0.00009888,-0.00011746,0.00012
 528,0.00000579,-0.00000881,0.00001804,-0.00000085,0.00000492,-0.000001
 51,0.00600654,0.00357779,-0.00616233,0.00047800,-0.00011209,-0.0023136
 0,0.00000502,0.00000238,-0.00001557,0.00000469,0.00000167,-0.00000281,
 0.00000629,-0.00000835,0.00001297,0.00162164,0.00030228,-0.00043880,0.
 00013416,-0.00043501,0.00026465,0.00015696,-0.00000537,0.00012509,-0.0
 0001049,0.00000527,0.00000644,-0.00004141,0.00008590,0.00013955,-0.000
 00584,0.00000606,-0.00000463,-0.00000747,0.00000087,0.00000231,0.00000
 246,0.00000113,0.00000448,0.00000159,-0.00000076,-0.00000092,-0.171582
 92,-0.06247932,0.11540435,-0.00274490,-0.00060120,0.00125371,0.1837412
 0,0.00000096,-0.00000285,0.00000188,-0.00000050,-0.00000115,-0.0000009
 1,0.00000123,-0.00000182,0.00000158,0.00000080,0.00000293,0.00000064,-
 0.00000182,-0.00000255,0.00000352,-0.00000765,0.00000445,-0.00000477,0
 .00000040,-0.00000103,0.00000103,0.00000377,-0.00000015,-0.00000290,0.
 00000139,0.00000006,0.00000167,-0.00000140,0.00000148,-0.00000089,-0.0
 0004010,-0.00001673,0.00000817,0.00001090,0.00000993,-0.00000632,0.000
 01008,-0.00000556,0.00001313,-0.00000844,-0.00000426,0.00001425,-0.000
 04601,-0.00003522,0.00000061,0.00008465,-0.00004644,-0.00008171,-0.000
 00092,-0.00000215,0.00000017,0.00000445,0.00000403,0.00000327,-0.00000
 030,-0.00000063,-0.00000074,0.00001051,-0.00000122,-0.00000198,-0.0000
 0089,-0.00000100,-0.00000102,0.00000107,0.00000114,-0.00000039,-0.0000
 0210,-0.00000058,0.00000132,0.00001050,0.00002704,0.00004722,-0.000005
 25,-0.00000085,0.00001670,0.00001821,0.00000617,0.00004131,-0.00000279
 ,-0.00000026,0.00000797,0.00000277,0.00000152,-0.00000607,-0.00000205,
 -0.00000278,0.00000495,0.00098363,0.00090902,-0.00069043,-0.00032662,0
 .00018226,-0.00005836,0.00012147,-0.00002553,0.00005616,0.00000256,0.0
 0000001,-0.00000182,-0.00000064,0.00000171,0.00000061,0.00386432,0.000
 94606,-0.00336515,-0.00009551,0.00051776,-0.00116791,-0.00000188,-0.00
 000050,0.00000178,0.00000245,0.00000075,-0.00000262,-0.00000027,-0.000
 00256,0.00000161,-0.00007369,-0.00004449,0.00028364,0.00015161,0.00010
 804,0.00029925,0.00018435,-0.00007652,-0.00011984,-0.00000216,0.000001
 78,-0.00000016,-0.00016686,-0.00012325,0.00006954,-0.00000053,0.000000
 18,-0.00000003,-0.00000202,0.00000031,-0.00000044,0.00000105,-0.000000
 22,-0.00000016,0.00000077,-0.00000011,-0.00000034,-0.06253824,-0.07891
 130,0.05824106,-0.02219811,-0.00995165,0.02075142,0.06955841,0.0811849
 0,0.00000114,0.00001300,-0.00001205,0.00000208,0.00000169,0.00000363,-
 0.00000343,0.00000898,-0.00000707,-0.00000359,-0.00000618,-0.00000092,
 -0.00000286,0.00000753,-0.00000772,0.00001119,-0.00002462,0.00002564,-
 0.00000093,0.00000212,-0.00000246,-0.00000665,-0.00000469,0.00000516,-
 0.00000333,0.00000143,-0.00000370,0.00000580,-0.00000205,0.00000378,-0
 .00016053,-0.00001584,-0.00005387,-0.00004628,0.00001752,-0.00000733,0
 .00002364,-0.00001000,0.00002336,-0.00005688,-0.00005742,0.00005943,0.
 00001298,-0.00016338,-0.00000286,0.00012948,0.00003172,-0.00003251,0.0
 0000501,0.00000020,-0.00000444,0.00001164,0.00002166,0.00001797,0.0000
 0117,0.00000291,-0.00000159,0.00001437,0.00000502,0.00001122,-0.000000
 44,0.00001939,0.00001140,0.00000399,-0.00000675,0.00000131,0.00000446,
 -0.00000107,-0.00000292,-0.00034517,-0.00006345,0.00018846,-0.00002841
 ,-0.00002862,-0.00004684,-0.00000194,0.00000049,-0.00002742,0.00000898
 ,-0.00001178,-0.00000280,-0.00000621,-0.00000384,0.00000427,-0.0000073
 8,0.00000620,-0.00001127,0.00099107,0.00188001,0.00114763,-0.00055577,
 -0.00100143,0.00019718,-0.00006047,-0.00011245,-0.00004392,-0.00001170
 ,0.00000827,-0.00000299,0.00000314,-0.00000399,0.00000021,0.02270298,0
 .01129446,-0.02310158,-0.00284536,-0.00154534,-0.00535536,0.00000849,-
 0.00000444,-0.00000551,-0.00000206,0.00000018,0.00000026,-0.00000265,0
 .00000019,0.00000034,0.00160777,-0.00015324,0.00146455,-0.00108665,0.0
 0007056,0.00013031,-0.00017338,-0.00032042,0.00038099,0.00000600,0.000
 00037,0.00000287,-0.00013479,0.00005532,-0.00005213,0.00000730,-0.0000
 0228,0.00000396,0.00000620,-0.00000081,-0.00000079,-0.00000295,0.00000
 280,0.00000247,-0.00000264,-0.00000052,0.00000003,0.11491302,0.0580894
 3,-0.15189431,-0.00457149,-0.00161627,0.00334014,-0.12595146,-0.063404
 88,0.16990159,0.00000449,-0.00000579,-0.00000485,0.00000587,-0.0000052
 4,-0.00000106,0.00000319,-0.00000293,0.00000084,0.00000016,-0.00000125
 ,-0.00000135,-0.00000261,-0.00000578,-0.00000287,-0.00000063,0.0000039
 0,-0.00000391,-0.00000090,0.00000174,0.00000106,-0.00000123,0.00000215
 ,0.00000259,-0.00000073,0.00000102,0.00000376,-0.00000112,0.00000717,0
 .00000681,-0.00003324,0.00003878,-0.00003213,0.00000180,0.00000729,-0.
 00000820,0.00002490,-0.00001377,0.00000899,-0.00001980,-0.00003443,0.0
 0002432,-0.00004444,-0.00002497,-0.00003336,0.00002358,0.00000881,-0.0
 0003199,0.00000483,-0.00000053,0.00000058,0.00003049,0.00001082,0.0000
 4884,-0.00000028,0.00000186,0.00000098,0.00001324,-0.00003434,-0.00000
 799,0.00000049,0.00001549,0.00000395,0.00000441,-0.00000842,-0.0000022
 6,0.00000207,-0.00000196,0.00000377,0.00035477,-0.00028656,-0.00003971
 ,0.00000226,-0.00003554,-0.00007497,0.00010670,0.00006218,0.00021856,0
 .00000927,-0.00001077,-0.00001848,-0.00000396,-0.00000396,0.00000397,0
 .00000881,0.00000220,-0.00001748,-0.00002969,0.00072024,0.00080986,-0.
 00010621,0.00004273,-0.00008226,0.00035339,-0.00077033,-0.00026922,-0.
 00000241,0.00000896,-0.00000003,0.00000247,-0.00000679,-0.00000088,-0.
 00821079,0.00391908,-0.00033662,0.00060473,-0.00013232,-0.00023975,0.0
 0000757,-0.00000245,-0.00000502,-0.00000114,-0.00000227,0.00000249,0.0
 0000001,0.00000316,0.00000204,0.00069311,-0.00083905,-0.00299458,0.000
 47488,-0.00006678,0.00016767,-0.00053857,0.00055439,-0.00016231,0.0000
 0243,0.00000130,0.00000106,0.00009953,0.00001515,0.00020509,0.00000196
 ,-0.00000120,0.00000103,0.00000138,0.00000020,0.00000003,-0.00000062,0
 .00000276,0.00000252,-0.00000160,-0.00000253,0.00000120,-0.24832586,0.
 10748214,-0.04141268,0.00461374,-0.00231473,0.00140554,-0.01832184,0.0
 1049443,-0.00440655,0.26819109,-0.00000019,0.00000082,0.00000453,-0.00
 000439,0.00000093,-0.00000057,-0.00000099,-0.00000081,0.00000196,-0.00
 000130,0.00000030,0.00000018,0.00000955,-0.00000250,0.00000633,-0.0000
 0852,0.00000477,-0.00000196,0.00000033,-0.00000101,-0.00000045,-0.0000
 0052,0.00000101,0.00000044,0.00000044,-0.00000068,-0.00000147,-0.00000
 174,-0.00000244,-0.00000361,-0.00003395,0.00000300,0.00000352,0.000029
 95,-0.00001771,0.00000621,-0.00003336,-0.00001056,0.00000912,0.0000160
 8,0.00000082,-0.00001109,-0.00002478,-0.00000559,0.00003168,0.00008253
 ,0.00004821,-0.00003202,-0.00000120,-0.00000051,0.00000884,-0.00000378
 ,0.00000295,-0.00001034,0.00000032,-0.00000240,0.00000103,0.00001649,0
 .00000228,-0.00000201,0.00001327,-0.00000334,-0.00001022,-0.00000330,-
 0.00000358,-0.00000271,-0.00000882,-0.00000566,-0.00000609,-0.00000617
 ,0.00009662,0.00014739,-0.00001169,0.00001527,0.00003646,-0.00004318,0
 .00000002,-0.00000200,-0.00002280,0.00000825,0.00004413,-0.00000281,-0
 .00000532,0.00001142,0.00000731,0.00003017,-0.00000408,-0.00100919,0.0
 0075189,-0.00036001,-0.00005132,-0.00002943,0.00011812,0.00008157,0.00
 004660,-0.00035119,0.00000896,0.00000455,-0.00001560,0.00000063,-0.000
 00595,0.00000078,-0.00529101,0.00079639,-0.00064329,0.00022183,-0.0000
 1016,0.00044373,-0.00001622,-0.00000068,0.00002358,-0.00000497,-0.0000
 0376,0.00000530,0.00000021,0.00001437,-0.00001443,-0.00043336,-0.00004
 219,-0.00054062,0.00024525,-0.00003595,-0.00005376,0.00001548,0.000513
 15,-0.00017527,0.00000344,-0.00000647,-0.00000984,-0.00021137,0.000481
 42,-0.00007957,-0.00000323,-0.00000684,0.,0.00000066,0.00000063,-0.000
 00096,0.00000055,-0.00000491,-0.00000945,0.00000082,0.00000143,0.00000
 202,0.10813869,-0.10515448,0.02234897,0.02788834,-0.01331330,0.0056601
 4,-0.01075528,0.00535183,-0.00297567,-0.11879326,0.11049858,0.00000366
 ,-0.00001256,0.00000207,0.00000530,-0.00000664,-0.00000162,0.00000468,
 -0.00000635,0.00000501,0.00000228,0.00000355,-0.00000001,-0.00000301,-
 0.00001140,0.00000201,-0.00000693,0.00001638,-0.00001505,0.00000020,0.
 00000026,0.00000169,0.00000279,0.00000436,-0.00000102,0.00000131,-0.00
 000007,0.00000472,-0.00000296,0.00000814,0.00000530,0.00000269,0.00004
 118,0.00004544,0.00003749,0.00003164,-0.00002931,0.00003357,-0.0000159
 1,0.00000860,-0.00001794,-0.00003022,0.00001867,-0.00006609,0.00001638
 ,-0.00002759,0.00001092,0.00005427,-0.00002341,0.00000281,-0.00000381,
 0.00000058,0.00003098,0.00000486,0.00005455,-0.00000070,-0.00000001,0.
 00000081,0.00000858,-0.00006278,-0.00001447,-0.00002002,-0.00000347,0.
 00001259,0.00000588,-0.00000145,-0.00000339,0.00000522,0.00000508,0.00
 001357,0.00030339,0.00006246,0.00002717,0.00003764,-0.00000652,0.00001
 329,0.00008144,0.00009397,0.00017961,0.00003718,-0.00000349,-0.0000850
 9,-0.00000359,0.00000099,0.00000418,0.00000025,-0.00001452,0.00003139,
 -0.00046379,0.00157278,0.00104915,0.00010837,-0.00013747,-0.00001672,0
 .00039060,-0.00080906,0.00004320,0.00001116,-0.00000494,0.00002971,-0.
 00000026,0.00000133,-0.00000203,-0.02797923,0.01477781,-0.00476888,0.0
 0065326,0.00049910,0.00115180,0.00000220,0.00000282,-0.00001267,0.0000
 0297,-0.00000050,-0.00000030,0.00000920,-0.00000364,0.00001306,-0.0008
 7282,-0.00182664,-0.00624488,-0.00022426,-0.00019822,0.00004824,-0.001
 97568,0.00077166,-0.00035699,-0.00001074,0.00000389,0.00000547,0.00032
 014,-0.00005648,-0.00003893,-0.00001153,0.00000626,-0.00000917,-0.0000
 0825,0.00000156,0.00000475,0.00000238,0.00000093,0.00000259,0.00000153
 ,-0.00000175,-0.00000002,-0.04022691,0.02166269,-0.05482923,0.00493757
 ,-0.00187421,-0.00012039,0.01757408,-0.01095461,0.00375619,0.04726296,
 -0.02359760,0.06006578\\-0.00000013,0.00000220,-0.00000229,0.00000155,
 0.,0.00000135,0.00000065,0.00000210,0.00000027,-0.00000071,0.00000031,
 0.00000013,-0.00000067,-0.00000088,-0.00000032,0.00000028,-0.00000033,
 0.00000494,0.00000053,0.00000082,0.00000077,0.00000098,0.00000042,0.00
 000051,0.00000014,0.00000039,0.00000029,0.,0.00000027,-0.00000070,0.00
 000112,-0.00000024,-0.00000142,0.00000058,0.00000059,0.00000101,-0.000
 00228,0.00000132,0.00000184,0.00000014,0.00000074,-0.00000296,0.000002
 08,-0.00000038,0.00000121,-0.00000198,0.00000054,-0.00000296,0.0000009
 6,0.00000055,-0.00000018,-0.00000017,0.00000029,-0.00000052,0.00000074
 ,0.00000044,0.00000113,-0.00000027,-0.00000064,0.00000013,0.00000113,-
 0.00000002,0.00000031,-0.00000030,0.00000053,-0.00000022,-0.00000087,0
 .00000033,-0.00000001,0.00000093,0.00000053,0.00000460,0.00000062,0.00
 000052,-0.00000161,-0.00000072,-0.00000012,-0.00000122,0.00000074,-0.0
 0000148,-0.00000178,0.00000001,0.00000063,0.00000046,-0.00000040,0.000
 00010,0.00000034,-0.00000209,-0.00000330,-0.00000624,-0.00000008,0.,0.
 00000007,0.00000035,0.00000018,0.00000005,-0.00000012,-0.00000031,-0.0
 0000002,0.00000010,0.00000005,-0.00000002,0.00000159,0.00000084,0.0000
 0119,-0.00000026,-0.00000110,0.00000054,-0.00000082,-0.00000105,0.0000
 0008,-0.00000016,0.00000020,0.00000040,-0.00000024,-0.00000052,0.00000
 008,0.00000110,-0.00000022,-0.00000009,-0.00000063,-0.00000078,0.00000
 011,-0.00000081,-0.00000023,-0.00000014,0.00000017,-0.00000021,-0.0000
 0032,-0.00000018,-0.00000060,0.00000020,-0.00000052,0.00000019,0.00000
 070,-0.00000011,0.00000016,0.00000049,0.00000065,0.00000020,-0.0000000
 2,-0.00000017,0.00000062,0.00000096,-0.00000033,-0.00000080,-0.0000017
 9,-0.00000049,-0.00000094,0.00000058,-0.00000088,-0.00000112,0.0000001
 4,-0.00000073,-0.00000079,0.\\\@
 The archive entry for this job was punched.


 ALL THINGS ARE POSSIBLE EXCEPT SKIING THROUGH A REVOLVING DOOR.
 Job cpu time:       5 days  4 hours 39 minutes 17.3 seconds.
 Elapsed time:       0 days  3 hours 56 minutes 55.4 seconds.
 File lengths (MBytes):  RWF=   2564 Int=      0 D2E=      0 Chk=     60 Scr=      1
 Normal termination of Gaussian 16 at Mon Nov 13 19:27:26 2023.
