 Entering Gaussian System, Link 0=g16
 Input=ph_35me_2_1_m062x.com
 Output=ph_35me_2_1_m062x.log
 Initial command:
 /arc/software/Gaussian/g16.c01/l1.exe "/tmp/slurm/41660/Gau-233882.inp" -scrdir="/tmp/slurm/41660/"
 Entering Link 1 = /arc/software/Gaussian/g16.c01/l1.exe PID=    233883.
  
 Copyright (c) 1988-2019, Gaussian, Inc.  All Rights Reserved.
  
 This is part of the Gaussian(R) 16 program.  It is based on
 the Gaussian(R) 09 system (copyright 2009, Gaussian, Inc.),
 the Gaussian(R) 03 system (copyright 2003, Gaussian, Inc.),
 the Gaussian(R) 98 system (copyright 1998, Gaussian, Inc.),
 the Gaussian(R) 94 system (copyright 1995, Gaussian, Inc.),
 the Gaussian 92(TM) system (copyright 1992, Gaussian, Inc.),
 the Gaussian 90(TM) system (copyright 1990, Gaussian, Inc.),
 the Gaussian 88(TM) system (copyright 1988, Gaussian, Inc.),
 the Gaussian 86(TM) system (copyright 1986, Carnegie Mellon
 University), and the Gaussian 82(TM) system (copyright 1983,
 Carnegie Mellon University). Gaussian is a federally registered
 trademark of Gaussian, Inc.
  
 This software contains proprietary and confidential information,
 including trade secrets, belonging to Gaussian, Inc.
  
 This software is provided under written license and may be
 used, copied, transmitted, or stored only in accord with that
 written license.
  
 The following legend is applicable only to US Government
 contracts under FAR:
  
                    RESTRICTED RIGHTS LEGEND
  
 Use, reproduction and disclosure by the US Government is
 subject to restrictions as set forth in subparagraphs (a)
 and (c) of the Commercial Computer Software - Restricted
 Rights clause in FAR 52.227-19.
  
 Gaussian, Inc.
 340 Quinnipiac St., Bldg. 40, Wallingford CT 06492
  
  
 ---------------------------------------------------------------
 Warning -- This program may not be used in any manner that
 competes with the business of Gaussian, Inc. or will provide
 assistance to any competitor of Gaussian, Inc.  The licensee
 of this program is prohibited from giving any competitor of
 Gaussian, Inc. access to this program.  By using this program,
 the user acknowledges that Gaussian, Inc. is engaged in the
 business of creating and licensing software in the field of
 computational chemistry and represents and warrants to the
 licensee that it is not a competitor of Gaussian, Inc. and that
 it will not use this program in any manner prohibited above.
 ---------------------------------------------------------------
  

 Cite this work as:
 Gaussian 16, Revision C.01,
 M. J. Frisch, G. W. Trucks, H. B. Schlegel, G. E. Scuseria, 
 M. A. Robb, J. R. Cheeseman, G. Scalmani, V. Barone, 
 G. A. Petersson, H. Nakatsuji, X. Li, M. Caricato, A. V. Marenich, 
 J. Bloino, B. G. Janesko, R. Gomperts, B. Mennucci, H. P. Hratchian, 
 J. V. Ortiz, A. F. Izmaylov, J. L. Sonnenberg, D. Williams-Young, 
 F. Ding, F. Lipparini, F. Egidi, J. Goings, B. Peng, A. Petrone, 
 T. Henderson, D. Ranasinghe, V. G. Zakrzewski, J. Gao, N. Rega, 
 G. Zheng, W. Liang, M. Hada, M. Ehara, K. Toyota, R. Fukuda, 
 J. Hasegawa, M. Ishida, T. Nakajima, Y. Honda, O. Kitao, H. Nakai, 
 T. Vreven, K. Throssell, J. A. Montgomery, Jr., J. E. Peralta, 
 F. Ogliaro, M. J. Bearpark, J. J. Heyd, E. N. Brothers, K. N. Kudin, 
 V. N. Staroverov, T. A. Keith, R. Kobayashi, J. Normand, 
 K. Raghavachari, A. P. Rendell, J. C. Burant, S. S. Iyengar, 
 J. Tomasi, M. Cossi, J. M. Millam, M. Klene, C. Adamo, R. Cammi, 
 J. W. Ochterski, R. L. Martin, K. Morokuma, O. Farkas, 
 J. B. Foresman, and D. J. Fox, Gaussian, Inc., Wallingford CT, 2019.
 
 ******************************************
 Gaussian 16:  ES64L-G16RevC.01  3-Jul-2019
                14-Nov-2023 
 ******************************************
 %nprocshared=32
 Will use up to   32 processors via shared memory.
 %mem=8000MB
 %chk=ph_35me_2_1_m062x.chk
 -----------------------------------------
 # opt freq=noraman m062x def2tzvp pop=nbo
 -----------------------------------------
 1/18=20,19=15,26=3,38=1/1,3;
 2/9=110,12=2,17=6,18=5,40=1/2;
 3/5=44,7=101,11=2,25=1,30=1,71=1,74=-55/1,2,3;
 4//1;
 5/5=2,38=5/2;
 6/7=2,8=2,9=2,10=2,28=1,40=1/1,7;
 7//1,2,3,16;
 1/18=20,19=15,26=3/3(2);
 2/9=110/2;
 99//99;
 2/9=110/2;
 3/5=44,7=101,11=2,25=1,30=1,71=1,74=-55/1,2,3;
 4/5=5,16=3,69=1/1;
 5/5=2,38=5/2;
 7//1,2,3,16;
 1/18=20,19=15,26=3/3(-5);
 2/9=110/2;
 6/7=2,8=2,9=2,10=2,19=2,28=1,40=1/1,7;
 99/9=1/99;
 ------------
 Structure697
 ------------
 Symbolic Z-matrix:
 Charge =  0 Multiplicity = 1
 C                    -3.4448   -1.3035    1.5171 
 C                    -3.0213   -0.1846    2.2304 
 C                    -3.9586    0.7425    2.6774 
 C                    -5.3134    0.5584    2.4157 
 C                    -5.7313   -0.5615    1.7007 
 C                    -4.8039   -1.507     1.2424 
 H                    -3.6323    1.6109    3.2315 
 H                    -6.786    -0.7013    1.5149 
 H                    -1.9705   -0.0362    2.4325 
 H                    -2.7079   -2.0095    1.1633 
 C                    -6.1043   -4.9676   -0.9653 
 C                    -5.0593   -5.0807   -0.0476 
 C                    -4.645    -3.9549    0.6682 
 C                    -5.2548   -2.7069    0.4769 
 C                    -6.2999   -2.6175   -0.4535 
 C                    -6.7294   -3.737    -1.1701 
 H                    -3.848    -4.0536    1.39 
 H                    -6.7759   -1.6645   -0.6304 
 H                    -6.038     1.2784    2.7676 
 H                    -6.4306   -5.8358   -1.5192 
 C                    -7.8509   -3.6092   -2.1833 
 H                    -8.8193   -3.7436   -1.7011 
 H                    -7.8318   -2.629    -2.661 
 H                    -7.7468   -4.3461   -2.9805 
 C                    -4.3941   -6.4229    0.1909 
 H                    -3.5182   -6.5347   -0.4484 
 H                    -4.0818   -6.5211    1.2312 
 H                    -5.0837   -7.2444   -0.006 
 

 GradGradGradGradGradGradGradGradGradGradGradGradGradGradGradGradGradGrad
 Berny optimization.
 Initialization pass.
                           ----------------------------
                           !    Initial Parameters    !
                           ! (Angstroms and Degrees)  !
 --------------------------                            --------------------------
 ! Name  Definition              Value          Derivative Info.                !
 --------------------------------------------------------------------------------
 ! R1    R(1,2)                  1.3929         estimate D2E/DX2                !
 ! R2    R(1,6)                  1.4014         estimate D2E/DX2                !
 ! R3    R(1,10)                 1.0801         estimate D2E/DX2                !
 ! R4    R(2,3)                  1.3921         estimate D2E/DX2                !
 ! R5    R(2,9)                  1.0803         estimate D2E/DX2                !
 ! R6    R(3,4)                  1.3921         estimate D2E/DX2                !
 ! R7    R(3,7)                  1.0806         estimate D2E/DX2                !
 ! R8    R(4,5)                  1.3929         estimate D2E/DX2                !
 ! R9    R(4,19)                 1.0804         estimate D2E/DX2                !
 ! R10   R(5,6)                  1.4015         estimate D2E/DX2                !
 ! R11   R(5,8)                  1.08           estimate D2E/DX2                !
 ! R12   R(6,14)                 1.493          estimate D2E/DX2                !
 ! R13   R(11,12)                1.3953         estimate D2E/DX2                !
 ! R14   R(11,16)                1.3954         estimate D2E/DX2                !
 ! R15   R(11,20)                1.0803         estimate D2E/DX2                !
 ! R16   R(12,13)                1.3969         estimate D2E/DX2                !
 ! R17   R(12,25)                1.5169         estimate D2E/DX2                !
 ! R18   R(13,14)                1.4021         estimate D2E/DX2                !
 ! R19   R(13,17)                1.0798         estimate D2E/DX2                !
 ! R20   R(14,15)                1.4021         estimate D2E/DX2                !
 ! R21   R(15,16)                1.3969         estimate D2E/DX2                !
 ! R22   R(15,18)                1.0799         estimate D2E/DX2                !
 ! R23   R(16,21)                1.5168         estimate D2E/DX2                !
 ! R24   R(21,22)                1.0901         estimate D2E/DX2                !
 ! R25   R(21,23)                1.0906         estimate D2E/DX2                !
 ! R26   R(21,24)                1.0906         estimate D2E/DX2                !
 ! R27   R(25,26)                1.0901         estimate D2E/DX2                !
 ! R28   R(25,27)                1.0906         estimate D2E/DX2                !
 ! R29   R(25,28)                1.0905         estimate D2E/DX2                !
 ! A1    A(2,1,6)              120.7898         estimate D2E/DX2                !
 ! A2    A(2,1,10)             119.0375         estimate D2E/DX2                !
 ! A3    A(6,1,10)             120.1667         estimate D2E/DX2                !
 ! A4    A(1,2,3)              119.6507         estimate D2E/DX2                !
 ! A5    A(1,2,9)              120.1257         estimate D2E/DX2                !
 ! A6    A(3,2,9)              120.2232         estimate D2E/DX2                !
 ! A7    A(2,3,4)              120.4539         estimate D2E/DX2                !
 ! A8    A(2,3,7)              119.7727         estimate D2E/DX2                !
 ! A9    A(4,3,7)              119.7734         estimate D2E/DX2                !
 ! A10   A(3,4,5)              119.6588         estimate D2E/DX2                !
 ! A11   A(3,4,19)             120.222          estimate D2E/DX2                !
 ! A12   A(5,4,19)             120.1189         estimate D2E/DX2                !
 ! A13   A(4,5,6)              120.7819         estimate D2E/DX2                !
 ! A14   A(4,5,8)              119.0374         estimate D2E/DX2                !
 ! A15   A(6,5,8)              120.1746         estimate D2E/DX2                !
 ! A16   A(1,6,5)              118.6648         estimate D2E/DX2                !
 ! A17   A(1,6,14)             120.6696         estimate D2E/DX2                !
 ! A18   A(5,6,14)             120.6656         estimate D2E/DX2                !
 ! A19   A(12,11,16)           120.2327         estimate D2E/DX2                !
 ! A20   A(12,11,20)           119.8863         estimate D2E/DX2                !
 ! A21   A(16,11,20)           119.881          estimate D2E/DX2                !
 ! A22   A(11,12,13)           119.5901         estimate D2E/DX2                !
 ! A23   A(11,12,25)           120.2358         estimate D2E/DX2                !
 ! A24   A(13,12,25)           120.1642         estimate D2E/DX2                !
 ! A25   A(12,13,14)           121.2265         estimate D2E/DX2                !
 ! A26   A(12,13,17)           119.1938         estimate D2E/DX2                !
 ! A27   A(14,13,17)           119.5756         estimate D2E/DX2                !
 ! A28   A(6,14,13)            120.9332         estimate D2E/DX2                !
 ! A29   A(6,14,15)            120.9374         estimate D2E/DX2                !
 ! A30   A(13,14,15)           118.1294         estimate D2E/DX2                !
 ! A31   A(14,15,16)           121.2317         estimate D2E/DX2                !
 ! A32   A(14,15,18)           119.5738         estimate D2E/DX2                !
 ! A33   A(16,15,18)           119.1903         estimate D2E/DX2                !
 ! A34   A(11,16,15)           119.5879         estimate D2E/DX2                !
 ! A35   A(11,16,21)           120.2371         estimate D2E/DX2                !
 ! A36   A(15,16,21)           120.1651         estimate D2E/DX2                !
 ! A37   A(16,21,22)           110.5463         estimate D2E/DX2                !
 ! A38   A(16,21,23)           110.8164         estimate D2E/DX2                !
 ! A39   A(16,21,24)           111.148          estimate D2E/DX2                !
 ! A40   A(22,21,23)           108.6703         estimate D2E/DX2                !
 ! A41   A(22,21,24)           108.9551         estimate D2E/DX2                !
 ! A42   A(23,21,24)           106.5854         estimate D2E/DX2                !
 ! A43   A(12,25,26)           110.5419         estimate D2E/DX2                !
 ! A44   A(12,25,27)           110.8078         estimate D2E/DX2                !
 ! A45   A(12,25,28)           111.1539         estimate D2E/DX2                !
 ! A46   A(26,25,27)           108.6677         estimate D2E/DX2                !
 ! A47   A(26,25,28)           108.9626         estimate D2E/DX2                !
 ! A48   A(27,25,28)           106.5879         estimate D2E/DX2                !
 ! D1    D(6,1,2,3)              0.0662         estimate D2E/DX2                !
 ! D2    D(6,1,2,9)           -179.7392         estimate D2E/DX2                !
 ! D3    D(10,1,2,3)           179.1702         estimate D2E/DX2                !
 ! D4    D(10,1,2,9)            -0.6353         estimate D2E/DX2                !
 ! D5    D(2,1,6,5)             -0.0348         estimate D2E/DX2                !
 ! D6    D(2,1,6,14)           179.9645         estimate D2E/DX2                !
 ! D7    D(10,1,6,5)          -179.1286         estimate D2E/DX2                !
 ! D8    D(10,1,6,14)            0.8706         estimate D2E/DX2                !
 ! D9    D(1,2,3,4)             -0.0267         estimate D2E/DX2                !
 ! D10   D(1,2,3,7)            179.9602         estimate D2E/DX2                !
 ! D11   D(9,2,3,4)            179.7785         estimate D2E/DX2                !
 ! D12   D(9,2,3,7)             -0.2345         estimate D2E/DX2                !
 ! D13   D(2,3,4,5)             -0.0434         estimate D2E/DX2                !
 ! D14   D(2,3,4,19)           179.7701         estimate D2E/DX2                !
 ! D15   D(7,3,4,5)            179.9696         estimate D2E/DX2                !
 ! D16   D(7,3,4,19)            -0.2168         estimate D2E/DX2                !
 ! D17   D(3,4,5,6)              0.0753         estimate D2E/DX2                !
 ! D18   D(3,4,5,8)            179.1789         estimate D2E/DX2                !
 ! D19   D(19,4,5,6)          -179.7384         estimate D2E/DX2                !
 ! D20   D(19,4,5,8)            -0.6349         estimate D2E/DX2                !
 ! D21   D(4,5,6,1)             -0.0364         estimate D2E/DX2                !
 ! D22   D(4,5,6,14)           179.9644         estimate D2E/DX2                !
 ! D23   D(8,5,6,1)           -179.1297         estimate D2E/DX2                !
 ! D24   D(8,5,6,14)             0.8711         estimate D2E/DX2                !
 ! D25   D(1,6,14,13)           37.9886         estimate D2E/DX2                !
 ! D26   D(1,6,14,15)         -142.0107         estimate D2E/DX2                !
 ! D27   D(5,6,14,13)         -142.0122         estimate D2E/DX2                !
 ! D28   D(5,6,14,15)           37.9885         estimate D2E/DX2                !
 ! D29   D(16,11,12,13)          0.1888         estimate D2E/DX2                !
 ! D30   D(16,11,12,25)        179.0453         estimate D2E/DX2                !
 ! D31   D(20,11,12,13)       -179.8099         estimate D2E/DX2                !
 ! D32   D(20,11,12,25)         -0.9535         estimate D2E/DX2                !
 ! D33   D(12,11,16,15)          0.1918         estimate D2E/DX2                !
 ! D34   D(12,11,16,21)        179.0454         estimate D2E/DX2                !
 ! D35   D(20,11,16,15)       -179.8094         estimate D2E/DX2                !
 ! D36   D(20,11,16,21)         -0.9558         estimate D2E/DX2                !
 ! D37   D(11,12,13,14)         -0.3852         estimate D2E/DX2                !
 ! D38   D(11,12,13,17)        178.8756         estimate D2E/DX2                !
 ! D39   D(25,12,13,14)       -179.2425         estimate D2E/DX2                !
 ! D40   D(25,12,13,17)          0.0183         estimate D2E/DX2                !
 ! D41   D(11,12,25,26)         93.3774         estimate D2E/DX2                !
 ! D42   D(11,12,25,27)       -146.0878         estimate D2E/DX2                !
 ! D43   D(11,12,25,28)        -27.7596         estimate D2E/DX2                !
 ! D44   D(13,12,25,26)        -87.7728         estimate D2E/DX2                !
 ! D45   D(13,12,25,27)         32.7621         estimate D2E/DX2                !
 ! D46   D(13,12,25,28)        151.0902         estimate D2E/DX2                !
 ! D47   D(12,13,14,6)        -179.8068         estimate D2E/DX2                !
 ! D48   D(12,13,14,15)          0.1925         estimate D2E/DX2                !
 ! D49   D(17,13,14,6)           0.9351         estimate D2E/DX2                !
 ! D50   D(17,13,14,15)       -179.0656         estimate D2E/DX2                !
 ! D51   D(6,14,15,16)        -179.8038         estimate D2E/DX2                !
 ! D52   D(6,14,15,18)           0.9383         estimate D2E/DX2                !
 ! D53   D(13,14,15,16)          0.1969         estimate D2E/DX2                !
 ! D54   D(13,14,15,18)       -179.061          estimate D2E/DX2                !
 ! D55   D(14,15,16,11)         -0.3891         estimate D2E/DX2                !
 ! D56   D(14,15,16,21)       -179.2435         estimate D2E/DX2                !
 ! D57   D(18,15,16,11)        178.8717         estimate D2E/DX2                !
 ! D58   D(18,15,16,21)          0.0172         estimate D2E/DX2                !
 ! D59   D(11,16,21,22)         93.3709         estimate D2E/DX2                !
 ! D60   D(11,16,21,23)       -146.0824         estimate D2E/DX2                !
 ! D61   D(11,16,21,24)        -27.7556         estimate D2E/DX2                !
 ! D62   D(15,16,21,22)        -87.7822         estimate D2E/DX2                !
 ! D63   D(15,16,21,23)         32.7646         estimate D2E/DX2                !
 ! D64   D(15,16,21,24)        151.0913         estimate D2E/DX2                !
 --------------------------------------------------------------------------------
 Trust Radius=3.00D-01 FncErr=1.00D-07 GrdErr=1.00D-06 EigMax=2.50D+02 EigMin=1.00D-04
 Number of steps in this run=    151 maximum allowed number of steps=    168.
 GradGradGradGradGradGradGradGradGradGradGradGradGradGradGradGradGradGrad

                          Input orientation:                          
 ---------------------------------------------------------------------
 Center     Atomic      Atomic             Coordinates (Angstroms)
 Number     Number       Type             X           Y           Z
 ---------------------------------------------------------------------
      1          6           0       -3.444800   -1.303500    1.517100
      2          6           0       -3.021300   -0.184600    2.230400
      3          6           0       -3.958600    0.742500    2.677400
      4          6           0       -5.313400    0.558400    2.415700
      5          6           0       -5.731300   -0.561500    1.700700
      6          6           0       -4.803900   -1.507000    1.242400
      7          1           0       -3.632300    1.610900    3.231500
      8          1           0       -6.786000   -0.701300    1.514900
      9          1           0       -1.970500   -0.036200    2.432500
     10          1           0       -2.707900   -2.009500    1.163300
     11          6           0       -6.104300   -4.967600   -0.965300
     12          6           0       -5.059300   -5.080700   -0.047600
     13          6           0       -4.645000   -3.954900    0.668200
     14          6           0       -5.254800   -2.706900    0.476900
     15          6           0       -6.299900   -2.617500   -0.453500
     16          6           0       -6.729400   -3.737000   -1.170100
     17          1           0       -3.848000   -4.053600    1.390000
     18          1           0       -6.775900   -1.664500   -0.630400
     19          1           0       -6.038000    1.278400    2.767600
     20          1           0       -6.430600   -5.835800   -1.519200
     21          6           0       -7.850900   -3.609200   -2.183300
     22          1           0       -8.819300   -3.743600   -1.701100
     23          1           0       -7.831800   -2.629000   -2.661000
     24          1           0       -7.746800   -4.346100   -2.980500
     25          6           0       -4.394100   -6.422900    0.190900
     26          1           0       -3.518200   -6.534700   -0.448400
     27          1           0       -4.081800   -6.521100    1.231200
     28          1           0       -5.083700   -7.244400   -0.006000
 ---------------------------------------------------------------------
                    Distance matrix (angstroms):
                    1          2          3          4          5
     1  C    0.000000
     2  C    1.392870   0.000000
     3  C    2.407572   1.392068   0.000000
     4  C    2.786722   2.416631   1.392071   0.000000
     5  C    2.410883   2.786886   2.407659   1.392854   0.000000
     6  C    1.401437   2.429516   2.798930   2.429424   1.401456
     7  H    3.386451   2.144608   1.080563   2.144617   3.386513
     8  H    3.395036   3.866767   3.380851   2.137016   1.080027
     9  H    2.148852   1.080300   2.149161   3.395410   3.867181
    10  H    1.080107   2.137097   3.380866   3.866684   3.395063
    11  C    5.163417   6.526444   7.104825   6.526359   5.163371
    12  C    4.395695   5.771873   6.522793   6.158885   4.891963
    13  C    3.031672   4.392270   5.154958   4.885733   3.709618
    14  C    2.515482   3.798063   4.291934   3.797968   2.515448
    15  C    3.709644   4.885851   5.154980   4.392247   3.031669
    16  C    4.891990   6.158973   6.522769   5.771783   4.395622
    17  H    2.782404   4.044610   4.967112   4.946716   3.979713
    18  H    3.979737   4.946848   4.967129   4.044616   2.782414
    19  H    3.867123   3.395502   2.149239   1.080407   2.148854
    20  H    6.218992   7.590711   8.185125   7.590610   6.218924
    21  C    6.198623   7.384692   7.596953   6.705117   5.372768
    22  H    6.722808   7.857479   7.932387   6.909890   5.588716
    23  H    6.201551   7.282980   7.407240   6.501903   5.264132
    24  H    6.927700   8.173244   8.500361   7.687297   6.348155
    25  C    5.372917   6.705261   7.597059   7.384673   6.198678
    26  H    5.588741   6.909895   7.932353   7.857346   6.722764
    27  H    5.264110   6.501868   7.407196   7.282802   6.201461
    28  H    6.348238   7.687376   8.500415   8.173193   6.927724
                    6          7          8          9         10
     6  C    0.000000
     7  H    3.879493   0.000000
     8  H    2.156879   4.270692   0.000000
     9  H    3.407014   2.472432   4.947059   0.000000
    10  H    2.156845   4.270745   4.297198   2.459378   0.000000
    11  C    4.305895   8.185388   4.981709   7.276816   4.981649
    12  C    3.807973   7.587248   4.960045   6.413935   4.053101
    13  C    2.519359   6.210813   3.985812   5.061809   2.789635
    14  C    1.493004   5.372497   2.728452   4.663007   2.728408
    15  C    2.519385   6.210852   2.789752   5.808254   3.985746
    16  C    3.807966   7.587236   4.053135   7.022946   4.959987
    17  H    2.724097   5.960219   4.459300   4.555361   2.351503
    18  H    2.724146   5.960263   2.351631   5.926600   4.459261
    19  H    3.407006   2.472479   2.459263   4.287776   4.947083
    20  H    5.386195   9.265688   5.974543   8.315274   5.974519
    21  C    5.043696   8.623578   4.823544   8.285592   6.341074
    22  H    5.458022   8.939026   4.871607   8.816889   6.968579
    23  H    5.065925   8.386543   4.716764   8.186647   6.423660
    24  H    5.878268   9.539597   5.866543   9.013404   6.929740
    25  C    5.043774   8.623661   6.341204   7.189475   4.823581
    26  H    5.457985   8.938987   6.968617   7.274989   4.871509
    27  H    5.065842   8.386458   6.423648   6.924929   4.716646
    28  H    5.878312   9.539618   6.929872   8.221706   5.866504
                   11         12         13         14         15
    11  C    0.000000
    12  C    1.395346   0.000000
    13  C    2.413180   1.396939   0.000000
    14  C    2.812891   2.438903   1.402125   0.000000
    15  C    2.413124   2.787687   2.405316   1.402095   0.000000
    16  C    1.395374   2.419663   2.787750   2.438885   1.396877
    17  H    3.387289   2.142166   1.079790   2.150916   3.387136
    18  H    3.387281   3.867401   3.387186   2.150920   1.079851
    19  H    7.276775   7.022917   5.808215   4.662974   5.061829
    20  H    1.080300   2.148545   3.392767   3.893191   3.392677
    21  C    2.525745   3.810454   4.304458   3.824989   2.526119
    22  H    3.067703   4.319664   4.804478   4.303962   3.028528
    23  H    3.365814   4.530723   4.795548   4.061208   2.686988
    24  H    2.673032   4.045268   4.804915   4.566252   3.386341
    25  C    2.525763   1.516863   2.526221   3.825083   4.304462
    26  H    3.067719   2.156327   3.028505   4.303953   4.804408
    27  H    3.365781   2.159997   2.686921   4.061160   4.795443
    28  H    2.673144   2.164237   3.386416   4.566330   4.804956
                   16         17         18         19         20
    16  C    0.000000
    17  H    3.867404   0.000000
    18  H    2.142124   4.285139   0.000000
    19  H    6.413872   5.926559   4.555388   0.000000
    20  H    2.148514   4.278961   4.278895   8.315205   0.000000
    21  C    1.516796   5.384159   2.710900   7.189343   2.723239
    22  H    2.156313   5.862152   3.105566   7.274984   3.180609
    23  H    2.160031   5.857538   2.483651   6.924969   3.681119
    24  H    2.164175   5.864083   3.695483   8.221657   2.467182
    25  C    3.810513   2.711024   5.384225   8.285639   2.723318
    26  H    4.319697   3.105534   5.862131   8.816835   3.180746
    27  H    4.530700   2.483634   5.857499   8.186540   3.681195
    28  H    4.045406   3.695534   5.864188   9.013416   2.467401
                   21         22         23         24         25
    21  C    0.000000
    22  H    1.090128   0.000000
    23  H    1.090575   1.771693   0.000000
    24  H    1.090590   1.774860   1.748639   0.000000
    25  C    5.050069   5.508240   5.860443   5.060778   0.000000
    26  H    5.508241   6.120552   6.225531   5.392825   1.090140
    27  H    5.860383   6.225496   6.660343   5.991767   1.090596
    28  H    5.060900   5.392928   5.991911   4.933548   1.090495
                   26         27         28
    26  H    0.000000
    27  H    1.771690   0.000000
    28  H    1.774875   1.748608   0.000000
 Stoichiometry    C14H14
 Framework group  C1[X(C14H14)]
 Deg. of freedom    78
 Full point group                 C1      NOp   1
 Largest Abelian subgroup         C1      NOp   1
 Largest concise Abelian subgroup C1      NOp   1
                         Standard orientation:                         
 ---------------------------------------------------------------------
 Center     Atomic      Atomic             Coordinates (Angstroms)
 Number     Number       Type             X           Y           Z
 ---------------------------------------------------------------------
      1          6           0       -2.071591    1.041773   -0.606402
      2          6           0       -3.464457    1.043939   -0.608501
      3          6           0       -4.155672   -0.000025   -0.000047
      4          6           0       -3.464379   -1.043874    0.608522
      5          6           0       -2.071528   -1.041820    0.606446
      6          6           0       -1.356742    0.000002    0.000006
      7          1           0       -5.236235   -0.000003    0.000046
      8          1           0       -1.545386   -1.849751    1.093147
      9          1           0       -4.004691    1.850312   -1.082798
     10          1           0       -1.545335    1.849719   -1.093136
     11          6           0        2.949153   -0.000001   -0.000001
     12          6           0        2.253937    1.199211    0.159862
     13          6           0        0.857022    1.191591    0.162895
     14          6           0        0.136262   -0.000014   -0.000006
     15          6           0        0.857067   -1.191555   -0.162924
     16          6           0        2.253919   -1.199237   -0.159856
     17          1           0        0.325571    2.120678    0.305384
     18          1           0        0.325604   -2.120696   -0.305480
     19          1           0       -4.004627   -1.850339    1.082890
     20          1           0        4.029453   -0.000054    0.000005
     21          6           0        3.009389   -2.499910   -0.355268
     22          1           0        3.162635   -3.000709    0.600815
     23          1           0        2.460767   -3.171113   -1.016974
     24          1           0        3.978925   -2.325320   -0.823140
     25          6           0        3.009473    2.499924    0.355273
     26          1           0        3.162578    3.000721   -0.600847
     27          1           0        2.460703    3.171076    1.016941
     28          1           0        3.978921    2.325445    0.823151
 ---------------------------------------------------------------------
 Rotational constants (GHZ):           1.3509394           0.4016285           0.3218650
 Standard basis: def2TZVP (5D, 7F)
 There are   588 symmetry adapted cartesian basis functions of A   symmetry.
 There are   518 symmetry adapted basis functions of A   symmetry.
   518 basis functions,   826 primitive gaussians,   588 cartesian basis functions
    49 alpha electrons       49 beta electrons
       nuclear repulsion energy       788.9643157969 Hartrees.
 NAtoms=   28 NActive=   28 NUniq=   28 SFac= 1.00D+00 NAtFMM=   60 NAOKFM=F Big=F
 Integral buffers will be    131072 words long.
 Raffenetti 2 integral format.
 Two-electron integral symmetry is turned on.
 One-electron integrals computed using PRISM.
   1 Symmetry operations used in ECPInt.
 ECPInt:  NShTT=   22155 NPrTT=   66780 LenC2=   20247 LenP2D=   45449.
 LDataN:  DoStor=T MaxTD1= 6 Len=  172
 NBasis=   518 RedAO= T EigKep=  6.29D-06  NBF=   518
 NBsUse=   518 1.00D-06 EigRej= -1.00D+00 NBFU=   518
 ExpMin= 9.52D-02 ExpMax= 1.36D+04 ExpMxC= 4.63D+02 IAcc=3 IRadAn=         5 AccDes= 0.00D+00
 Harris functional with IExCor= 1009 and IRadAn=       5 diagonalized for initial guess.
 HarFok:  IExCor= 1009 AccDes= 0.00D+00 IRadAn=         5 IDoV= 1 UseB2=F ITyADJ=14
 ICtDFT=  3500011 ScaDFX=  1.000000  1.000000  1.000000  1.000000
 FoFCou: FMM=F IPFlag=           0 FMFlag=      100000 FMFlg1=           0
         NFxFlg=           0 DoJE=T BraDBF=F KetDBF=T FulRan=T
         wScrn=  0.000000 ICntrl=       500 IOpCl=  0 I1Cent=   200000004 NGrid=           0
         NMat0=    1 NMatS0=      1 NMatT0=    0 NMatD0=    1 NMtDS0=    0 NMtDT0=    0
 Petite list used in FoFCou.
 Requested convergence on RMS density matrix=1.00D-08 within 128 cycles.
 Requested convergence on MAX density matrix=1.00D-06.
 Requested convergence on             energy=1.00D-06.
 No special actions if energy rises.
 Integral accuracy reduced to 1.0D-05 until final iterations.
 Rare condition: small coef for last iteration:  0.000D+00
 Rare condition: small coef for last iteration:  0.000D+00
 Problem detected with inexpensive integrals.
 Switching to full accuracy and repeating last cycle.
 SCF Done:  E(RM062X) =  -541.887415739     A.U. after   16 cycles
            NFock= 16  Conv=0.87D-08     -V/T= 2.0055

 **********************************************************************

            Population analysis using the SCF Density.

 **********************************************************************

 Orbital symmetries:
       Occupied  (A) (A) (A) (A) (A) (A) (A) (A) (A) (A) (A) (A)
                 (A) (A) (A) (A) (A) (A) (A) (A) (A) (A) (A) (A)
                 (A) (A) (A) (A) (A) (A) (A) (A) (A) (A) (A) (A)
                 (A) (A) (A) (A) (A) (A) (A) (A) (A) (A) (A) (A)
                 (A)
       Virtual   (A) (A) (A) (A) (A) (A) (A) (A) (A) (A) (A) (A)
                 (A) (A) (A) (A) (A) (A) (A) (A) (A) (A) (A) (A)
                 (A) (A) (A) (A) (A) (A) (A) (A) (A) (A) (A) (A)
                 (A) (A) (A) (A) (A) (A) (A) (A) (A) (A) (A) (A)
                 (A) (A) (A) (A) (A) (A) (A) (A) (A) (A) (A) (A)
                 (A) (A) (A) (A) (A) (A) (A) (A) (A) (A) (A) (A)
                 (A) (A) (A) (A) (A) (A) (A) (A) (A) (A) (A) (A)
                 (A) (A) (A) (A) (A) (A) (A) (A) (A) (A) (A) (A)
                 (A) (A) (A) (A) (A) (A) (A) (A) (A) (A) (A) (A)
                 (A) (A) (A) (A) (A) (A) (A) (A) (A) (A) (A) (A)
                 (A) (A) (A) (A) (A) (A) (A) (A) (A) (A) (A) (A)
                 (A) (A) (A) (A) (A) (A) (A) (A) (A) (A) (A) (A)
                 (A) (A) (A) (A) (A) (A) (A) (A) (A) (A) (A) (A)
                 (A) (A) (A) (A) (A) (A) (A) (A) (A) (A) (A) (A)
                 (A) (A) (A) (A) (A) (A) (A) (A) (A) (A) (A) (A)
                 (A) (A) (A) (A) (A) (A) (A) (A) (A) (A) (A) (A)
                 (A) (A) (A) (A) (A) (A) (A) (A) (A) (A) (A) (A)
                 (A) (A) (A) (A) (A) (A) (A) (A) (A) (A) (A) (A)
                 (A) (A) (A) (A) (A) (A) (A) (A) (A) (A) (A) (A)
                 (A) (A) (A) (A) (A) (A) (A) (A) (A) (A) (A) (A)
                 (A) (A) (A) (A) (A) (A) (A) (A) (A) (A) (A) (A)
                 (A) (A) (A) (A) (A) (A) (A) (A) (A) (A) (A) (A)
                 (A) (A) (A) (A) (A) (A) (A) (A) (A) (A) (A) (A)
                 (A) (A) (A) (A) (A) (A) (A) (A) (A) (A) (A) (A)
                 (A) (A) (A) (A) (A) (A) (A) (A) (A) (A) (A) (A)
                 (A) (A) (A) (A) (A) (A) (A) (A) (A) (A) (A) (A)
                 (A) (A) (A) (A) (A) (A) (A) (A) (A) (A) (A) (A)
                 (A) (A) (A) (A) (A) (A) (A) (A) (A) (A) (A) (A)
                 (A) (A) (A) (A) (A) (A) (A) (A) (A) (A) (A) (A)
                 (A) (A) (A) (A) (A) (A) (A) (A) (A) (A) (A) (A)
                 (A) (A) (A) (A) (A) (A) (A) (A) (A) (A) (A) (A)
                 (A) (A) (A) (A) (A) (A) (A) (A) (A) (A) (A) (A)
                 (A) (A) (A) (A) (A) (A) (A) (A) (A) (A) (A) (A)
                 (A) (A) (A) (A) (A) (A) (A) (A) (A) (A) (A) (A)
                 (A) (A) (A) (A) (A) (A) (A) (A) (A) (A) (A) (A)
                 (A) (A) (A) (A) (A) (A) (A) (A) (A) (A) (A) (A)
                 (A) (A) (A) (A) (A) (A) (A) (A) (A) (A) (A) (A)
                 (A) (A) (A) (A) (A) (A) (A) (A) (A) (A) (A) (A)
                 (A) (A) (A) (A) (A) (A) (A) (A) (A) (A) (A) (A)
                 (A)
 The electronic state is 1-A.
 Alpha  occ. eigenvalues --  -10.55315 -10.55118 -10.54837 -10.54836 -10.54199
 Alpha  occ. eigenvalues --  -10.54192 -10.54116 -10.54109 -10.53986 -10.53397
 Alpha  occ. eigenvalues --  -10.53394 -10.53264 -10.53093 -10.53093  -0.97390
 Alpha  occ. eigenvalues --   -0.95318  -0.88069  -0.87800  -0.84324  -0.82127
 Alpha  occ. eigenvalues --   -0.78090  -0.76996  -0.70648  -0.69052  -0.64937
 Alpha  occ. eigenvalues --   -0.64681  -0.59545  -0.56714  -0.54503  -0.53502
 Alpha  occ. eigenvalues --   -0.51083  -0.49571  -0.49453  -0.48872  -0.48288
 Alpha  occ. eigenvalues --   -0.47559  -0.46375  -0.45893  -0.44752  -0.43191
 Alpha  occ. eigenvalues --   -0.42085  -0.41202  -0.40494  -0.38618  -0.38600
 Alpha  occ. eigenvalues --   -0.32770  -0.30846  -0.29043  -0.27510
 Alpha virt. eigenvalues --   -0.00396   0.01890   0.02582   0.05426   0.07287
 Alpha virt. eigenvalues --    0.08708   0.08810   0.10716   0.11148   0.11742
 Alpha virt. eigenvalues --    0.12831   0.13317   0.13427   0.14877   0.15466
 Alpha virt. eigenvalues --    0.16040   0.16433   0.17228   0.17614   0.18365
 Alpha virt. eigenvalues --    0.18597   0.19256   0.20193   0.21534   0.22339
 Alpha virt. eigenvalues --    0.22785   0.23144   0.23659   0.25141   0.25306
 Alpha virt. eigenvalues --    0.25891   0.26515   0.26793   0.27441   0.28888
 Alpha virt. eigenvalues --    0.29069   0.29579   0.30108   0.30391   0.31455
 Alpha virt. eigenvalues --    0.32261   0.32802   0.33977   0.34921   0.35377
 Alpha virt. eigenvalues --    0.35949   0.36398   0.37578   0.37886   0.38179
 Alpha virt. eigenvalues --    0.38700   0.39674   0.39769   0.40289   0.40898
 Alpha virt. eigenvalues --    0.41779   0.42088   0.42280   0.42951   0.44464
 Alpha virt. eigenvalues --    0.44854   0.45737   0.46158   0.46370   0.47414
 Alpha virt. eigenvalues --    0.47546   0.47854   0.48554   0.49249   0.49621
 Alpha virt. eigenvalues --    0.49769   0.50881   0.51713   0.53033   0.53648
 Alpha virt. eigenvalues --    0.53707   0.54463   0.54691   0.55218   0.56007
 Alpha virt. eigenvalues --    0.56898   0.58599   0.58974   0.60221   0.61326
 Alpha virt. eigenvalues --    0.62460   0.63362   0.64976   0.65312   0.66735
 Alpha virt. eigenvalues --    0.66748   0.67497   0.69369   0.70687   0.71951
 Alpha virt. eigenvalues --    0.72397   0.73330   0.73751   0.74194   0.75268
 Alpha virt. eigenvalues --    0.75967   0.76255   0.76718   0.77514   0.79033
 Alpha virt. eigenvalues --    0.79660   0.80789   0.81950   0.83428   0.85207
 Alpha virt. eigenvalues --    0.85282   0.85853   0.87293   0.88997   0.89685
 Alpha virt. eigenvalues --    0.89795   0.91311   0.91389   0.93563   0.94431
 Alpha virt. eigenvalues --    0.94480   0.95216   0.96022   0.96960   0.97182
 Alpha virt. eigenvalues --    0.99982   1.01432   1.01618   1.01692   1.04699
 Alpha virt. eigenvalues --    1.04734   1.07433   1.08929   1.09784   1.10795
 Alpha virt. eigenvalues --    1.11283   1.12994   1.15542   1.15683   1.15845
 Alpha virt. eigenvalues --    1.18318   1.19398   1.20543   1.20916   1.22798
 Alpha virt. eigenvalues --    1.24450   1.24820   1.24926   1.25341   1.26866
 Alpha virt. eigenvalues --    1.27058   1.31011   1.31567   1.32005   1.33172
 Alpha virt. eigenvalues --    1.34134   1.35245   1.36600   1.37162   1.37521
 Alpha virt. eigenvalues --    1.39052   1.39245   1.41882   1.45101   1.45790
 Alpha virt. eigenvalues --    1.46868   1.47786   1.47887   1.49361   1.51508
 Alpha virt. eigenvalues --    1.53058   1.54296   1.54941   1.55492   1.56497
 Alpha virt. eigenvalues --    1.57555   1.57892   1.58572   1.58972   1.59585
 Alpha virt. eigenvalues --    1.60598   1.60926   1.62116   1.62610   1.65334
 Alpha virt. eigenvalues --    1.65961   1.67146   1.67717   1.68536   1.69253
 Alpha virt. eigenvalues --    1.71035   1.71108   1.71468   1.72496   1.75019
 Alpha virt. eigenvalues --    1.75224   1.76678   1.76884   1.77235   1.78200
 Alpha virt. eigenvalues --    1.82113   1.82661   1.83249   1.85509   1.88514
 Alpha virt. eigenvalues --    1.90238   1.91947   1.94829   1.95169   1.97933
 Alpha virt. eigenvalues --    2.00000   2.00290   2.01511   2.02076   2.02697
 Alpha virt. eigenvalues --    2.04384   2.04739   2.06334   2.06339   2.06848
 Alpha virt. eigenvalues --    2.07491   2.08236   2.10523   2.12464   2.14419
 Alpha virt. eigenvalues --    2.14621   2.17366   2.18158   2.20169   2.20360
 Alpha virt. eigenvalues --    2.21229   2.22764   2.23445   2.24490   2.24929
 Alpha virt. eigenvalues --    2.25024   2.25671   2.27255   2.29196   2.31105
 Alpha virt. eigenvalues --    2.36012   2.37663   2.38257   2.39068   2.39843
 Alpha virt. eigenvalues --    2.41776   2.43980   2.44959   2.47137   2.48341
 Alpha virt. eigenvalues --    2.49301   2.49313   2.50911   2.53091   2.53249
 Alpha virt. eigenvalues --    2.55031   2.55606   2.56557   2.57197   2.59479
 Alpha virt. eigenvalues --    2.60785   2.61590   2.61593   2.64184   2.64483
 Alpha virt. eigenvalues --    2.65810   2.66252   2.66624   2.67819   2.68661
 Alpha virt. eigenvalues --    2.69452   2.69876   2.70442   2.72290   2.74240
 Alpha virt. eigenvalues --    2.74879   2.75477   2.75572   2.76740   2.77860
 Alpha virt. eigenvalues --    2.78730   2.78907   2.81135   2.82022   2.83253
 Alpha virt. eigenvalues --    2.83485   2.83893   2.84099   2.85540   2.86531
 Alpha virt. eigenvalues --    2.88090   2.88356   2.88704   2.89974   2.90780
 Alpha virt. eigenvalues --    2.93515   2.94922   2.95677   2.96275   2.98228
 Alpha virt. eigenvalues --    2.98363   2.99364   2.99796   3.01520   3.02150
 Alpha virt. eigenvalues --    3.04349   3.04946   3.05427   3.06691   3.07994
 Alpha virt. eigenvalues --    3.09668   3.10489   3.11345   3.11901   3.13932
 Alpha virt. eigenvalues --    3.14234   3.14617   3.15280   3.16734   3.18025
 Alpha virt. eigenvalues --    3.19033   3.19578   3.19758   3.20979   3.21420
 Alpha virt. eigenvalues --    3.21824   3.22748   3.22969   3.23522   3.25704
 Alpha virt. eigenvalues --    3.27391   3.27963   3.29088   3.30307   3.30321
 Alpha virt. eigenvalues --    3.31492   3.32374   3.32449   3.32954   3.33586
 Alpha virt. eigenvalues --    3.34025   3.35231   3.36932   3.36997   3.38698
 Alpha virt. eigenvalues --    3.39523   3.40153   3.40329   3.41632   3.43351
 Alpha virt. eigenvalues --    3.43684   3.44095   3.44641   3.45953   3.48291
 Alpha virt. eigenvalues --    3.49040   3.50565   3.50643   3.51618   3.52186
 Alpha virt. eigenvalues --    3.52560   3.55507   3.56094   3.57316   3.58469
 Alpha virt. eigenvalues --    3.59921   3.61929   3.62513   3.62566   3.64182
 Alpha virt. eigenvalues --    3.67562   3.67765   3.70093   3.70355   3.73007
 Alpha virt. eigenvalues --    3.74715   3.75220   3.75544   3.77248   3.78994
 Alpha virt. eigenvalues --    3.79879   3.82120   3.84251   3.87768   3.92171
 Alpha virt. eigenvalues --    3.92506   3.94277   3.95222   3.97220   4.00932
 Alpha virt. eigenvalues --    4.01146   4.04604   4.05388   4.06881   4.08409
 Alpha virt. eigenvalues --    4.09402   4.10860   4.12054   4.12812   4.13897
 Alpha virt. eigenvalues --    4.14087   4.16295   4.17093   4.17859   4.19277
 Alpha virt. eigenvalues --    4.19435   4.19850   4.20329   4.22041   4.22441
 Alpha virt. eigenvalues --    4.24668   4.27354   4.28102   4.30251   4.30945
 Alpha virt. eigenvalues --    4.33968   4.38257   4.39533   4.41078   4.42254
 Alpha virt. eigenvalues --    4.43003   4.43495   4.47630   4.51859   4.53016
 Alpha virt. eigenvalues --    4.59459   4.61562   4.62582   4.64271   4.66321
 Alpha virt. eigenvalues --    4.68309   4.70388   4.71236   4.73912   4.79084
 Alpha virt. eigenvalues --    4.80537   4.84943   4.87833   4.89377   4.95528
 Alpha virt. eigenvalues --    5.00074   5.12352   5.16285   5.19317   5.21151
 Alpha virt. eigenvalues --    5.24573   5.25950   5.29994   5.35170   5.37242
 Alpha virt. eigenvalues --    5.39438   5.42387   5.54496   5.58226   5.74291
 Alpha virt. eigenvalues --   22.06289  22.41303  22.51550  22.51835  22.68661
 Alpha virt. eigenvalues --   22.71529  22.84201  22.84995  22.94241  22.94915
 Alpha virt. eigenvalues --   23.08769  23.10297  23.30668  23.47159
          Condensed to atoms (all electrons):
               1          2          3          4          5          6
     1  C    5.016176   0.507342  -0.045358  -0.045498  -0.033994   0.504049
     2  C    0.507342   4.900585   0.525031  -0.040110  -0.045471  -0.057174
     3  C   -0.045358   0.525031   4.877590   0.525062  -0.045377  -0.039600
     4  C   -0.045498  -0.040110   0.525062   4.900512   0.507435  -0.057199
     5  C   -0.033994  -0.045471  -0.045377   0.507435   5.016083   0.504066
     6  C    0.504049  -0.057174  -0.039600  -0.057199   0.504066   4.974672
     7  H    0.004193  -0.034888   0.410269  -0.034879   0.004189   0.000924
     8  H    0.005243  -0.000122   0.002455  -0.022023   0.394674  -0.036368
     9  H   -0.031061   0.408175  -0.031595   0.003628  -0.000018   0.004541
    10  H    0.394645  -0.022008   0.002450  -0.000118   0.005239  -0.036375
    11  C   -0.000241  -0.000033   0.000011  -0.000033  -0.000240  -0.000096
    12  C    0.003582  -0.000130  -0.000053   0.000189  -0.000613   0.005777
    13  C   -0.005343   0.001199   0.000111  -0.000777   0.009886  -0.077353
    14  C   -0.075675   0.006037  -0.002651   0.006035  -0.075683   0.272757
    15  C    0.009873  -0.000773   0.000110   0.001200  -0.005351  -0.077351
    16  C   -0.000611   0.000188  -0.000053  -0.000131   0.003584   0.005779
    17  H    0.003795   0.000843  -0.000066  -0.000117  -0.000177   0.000615
    18  H   -0.000175  -0.000117  -0.000065   0.000842   0.003796   0.000612
    19  H   -0.000019   0.003630  -0.031595   0.408152  -0.031069   0.004544
    20  H   -0.000011  -0.000000   0.000000  -0.000000  -0.000011   0.000185
    21  C    0.000039   0.000001  -0.000001   0.000013   0.000441  -0.001488
    22  H   -0.000007  -0.000000   0.000000  -0.000001  -0.000006   0.000009
    23  H   -0.000005   0.000001   0.000000   0.000002   0.000081  -0.000260
    24  H    0.000002  -0.000000   0.000000  -0.000000  -0.000008   0.000021
    25  C    0.000441   0.000013  -0.000001   0.000001   0.000039  -0.001488
    26  H   -0.000006  -0.000001   0.000000  -0.000000  -0.000007   0.000009
    27  H    0.000081   0.000002   0.000000   0.000001  -0.000005  -0.000260
    28  H   -0.000008  -0.000000   0.000000  -0.000000   0.000002   0.000021
               7          8          9         10         11         12
     1  C    0.004193   0.005243  -0.031061   0.394645  -0.000241   0.003582
     2  C   -0.034888  -0.000122   0.408175  -0.022008  -0.000033  -0.000130
     3  C    0.410269   0.002455  -0.031595   0.002450   0.000011  -0.000053
     4  C   -0.034879  -0.022023   0.003628  -0.000118  -0.000033   0.000189
     5  C    0.004189   0.394674  -0.000018   0.005239  -0.000240  -0.000613
     6  C    0.000924  -0.036368   0.004541  -0.036375  -0.000096   0.005777
     7  H    0.517794  -0.000293  -0.004051  -0.000293  -0.000000  -0.000000
     8  H   -0.000293   0.490599   0.000067  -0.000234  -0.000243   0.000014
     9  H   -0.004051   0.000067   0.510704  -0.003405  -0.000001   0.000006
    10  H   -0.000293  -0.000234  -0.003405   0.490624  -0.000243   0.001471
    11  C   -0.000000  -0.000243  -0.000001  -0.000243   5.176776   0.483555
    12  C   -0.000000   0.000014   0.000006   0.001471   0.483555   4.968142
    13  C   -0.000009   0.000017   0.000018   0.003189  -0.048827   0.466951
    14  C    0.000124   0.003762  -0.000114   0.003763  -0.064610  -0.046113
    15  C   -0.000009   0.003189   0.000030   0.000017  -0.048815  -0.054822
    16  C   -0.000000   0.001471   0.000001   0.000014   0.483530  -0.046869
    17  H   -0.000000   0.000034   0.000048  -0.002112   0.005840  -0.014610
    18  H   -0.000000  -0.002111   0.000001   0.000034   0.005837   0.000170
    19  H   -0.004054  -0.003408  -0.000280   0.000067  -0.000001   0.000001
    20  H    0.000000  -0.000002  -0.000000  -0.000002   0.387424  -0.026917
    21  C   -0.000000   0.000225   0.000000   0.000007  -0.067460   0.013130
    22  H    0.000000  -0.000028   0.000000  -0.000000  -0.000659  -0.001983
    23  H   -0.000000   0.000039  -0.000000   0.000000   0.010188  -0.001180
    24  H    0.000000  -0.000002  -0.000000   0.000000  -0.015715   0.003339
    25  C   -0.000000   0.000007   0.000000   0.000225  -0.067460   0.261232
    26  H    0.000000  -0.000000  -0.000000  -0.000028  -0.000655  -0.026644
    27  H   -0.000000   0.000000  -0.000000   0.000039   0.010188  -0.058448
    28  H    0.000000   0.000000  -0.000000  -0.000002  -0.015711  -0.055537
              13         14         15         16         17         18
     1  C   -0.005343  -0.075675   0.009873  -0.000611   0.003795  -0.000175
     2  C    0.001199   0.006037  -0.000773   0.000188   0.000843  -0.000117
     3  C    0.000111  -0.002651   0.000110  -0.000053  -0.000066  -0.000065
     4  C   -0.000777   0.006035   0.001200  -0.000131  -0.000117   0.000842
     5  C    0.009886  -0.075683  -0.005351   0.003584  -0.000177   0.003796
     6  C   -0.077353   0.272757  -0.077351   0.005779   0.000615   0.000612
     7  H   -0.000009   0.000124  -0.000009  -0.000000  -0.000000  -0.000000
     8  H    0.000017   0.003762   0.003189   0.001471   0.000034  -0.002111
     9  H    0.000018  -0.000114   0.000030   0.000001   0.000048   0.000001
    10  H    0.003189   0.003763   0.000017   0.000014  -0.002112   0.000034
    11  C   -0.048827  -0.064610  -0.048815   0.483530   0.005840   0.005837
    12  C    0.466951  -0.046113  -0.054822  -0.046869  -0.014610   0.000170
    13  C    5.242677   0.467277  -0.036642  -0.054813   0.366306   0.007063
    14  C    0.467277   4.963956   0.467275  -0.046125  -0.019226  -0.019216
    15  C   -0.036642   0.467275   5.242674   0.466961   0.007067   0.366279
    16  C   -0.054813  -0.046125   0.466961   4.968136   0.000168  -0.014607
    17  H    0.366306  -0.019226   0.007067   0.000168   0.488152  -0.000289
    18  H    0.007063  -0.019216   0.366279  -0.014607  -0.000289   0.488173
    19  H    0.000030  -0.000114   0.000018   0.000006   0.000001   0.000048
    20  H    0.008672  -0.000421   0.008673  -0.026937  -0.000302  -0.000302
    21  C   -0.001016   0.013021  -0.064741   0.261225   0.000068  -0.004967
    22  H    0.000291  -0.001551  -0.005835  -0.026635   0.000001   0.000983
    23  H    0.000583   0.003080  -0.012688  -0.058446  -0.000002  -0.000295
    24  H    0.000115  -0.001226   0.012491  -0.055558  -0.000004   0.000016
    25  C   -0.064740   0.013021  -0.001018   0.013131  -0.004967   0.000068
    26  H   -0.005827  -0.001553   0.000291  -0.001985   0.000984   0.000001
    27  H   -0.012699   0.003081   0.000583  -0.001179  -0.000296  -0.000002
    28  H    0.012487  -0.001226   0.000115   0.003336   0.000016  -0.000004
              19         20         21         22         23         24
     1  C   -0.000019  -0.000011   0.000039  -0.000007  -0.000005   0.000002
     2  C    0.003630  -0.000000   0.000001  -0.000000   0.000001  -0.000000
     3  C   -0.031595   0.000000  -0.000001   0.000000   0.000000   0.000000
     4  C    0.408152  -0.000000   0.000013  -0.000001   0.000002  -0.000000
     5  C   -0.031069  -0.000011   0.000441  -0.000006   0.000081  -0.000008
     6  C    0.004544   0.000185  -0.001488   0.000009  -0.000260   0.000021
     7  H   -0.004054   0.000000  -0.000000   0.000000  -0.000000   0.000000
     8  H   -0.003408  -0.000002   0.000225  -0.000028   0.000039  -0.000002
     9  H   -0.000280  -0.000000   0.000000   0.000000  -0.000000  -0.000000
    10  H    0.000067  -0.000002   0.000007  -0.000000   0.000000   0.000000
    11  C   -0.000001   0.387424  -0.067460  -0.000659   0.010188  -0.015715
    12  C    0.000001  -0.026917   0.013130  -0.001983  -0.001180   0.003339
    13  C    0.000030   0.008672  -0.001016   0.000291   0.000583   0.000115
    14  C   -0.000114  -0.000421   0.013021  -0.001551   0.003080  -0.001226
    15  C    0.000018   0.008673  -0.064741  -0.005835  -0.012688   0.012491
    16  C    0.000006  -0.026937   0.261225  -0.026635  -0.058446  -0.055558
    17  H    0.000001  -0.000302   0.000068   0.000001  -0.000002  -0.000004
    18  H    0.000048  -0.000302  -0.004967   0.000983  -0.000295   0.000016
    19  H    0.510740  -0.000000   0.000000  -0.000000  -0.000000  -0.000000
    20  H   -0.000000   0.514031  -0.006152   0.000606   0.000032   0.000372
    21  C    0.000000  -0.006152   5.082520   0.392284   0.434993   0.431359
    22  H   -0.000000   0.000606   0.392284   0.537984  -0.027836  -0.026047
    23  H   -0.000000   0.000032   0.434993  -0.027836   0.532663  -0.029263
    24  H   -0.000000   0.000372   0.431359  -0.026047  -0.029263   0.535656
    25  C    0.000000  -0.006154  -0.000336   0.000011   0.000005  -0.000030
    26  H    0.000000   0.000607   0.000011   0.000003   0.000000  -0.000013
    27  H   -0.000000   0.000032   0.000005   0.000000  -0.000001   0.000001
    28  H   -0.000000   0.000372  -0.000030  -0.000013   0.000001   0.000039
              25         26         27         28
     1  C    0.000441  -0.000006   0.000081  -0.000008
     2  C    0.000013  -0.000001   0.000002  -0.000000
     3  C   -0.000001   0.000000   0.000000   0.000000
     4  C    0.000001  -0.000000   0.000001  -0.000000
     5  C    0.000039  -0.000007  -0.000005   0.000002
     6  C   -0.001488   0.000009  -0.000260   0.000021
     7  H   -0.000000   0.000000  -0.000000   0.000000
     8  H    0.000007  -0.000000   0.000000   0.000000
     9  H    0.000000  -0.000000  -0.000000  -0.000000
    10  H    0.000225  -0.000028   0.000039  -0.000002
    11  C   -0.067460  -0.000655   0.010188  -0.015711
    12  C    0.261232  -0.026644  -0.058448  -0.055537
    13  C   -0.064740  -0.005827  -0.012699   0.012487
    14  C    0.013021  -0.001553   0.003081  -0.001226
    15  C   -0.001018   0.000291   0.000583   0.000115
    16  C    0.013131  -0.001985  -0.001179   0.003336
    17  H   -0.004967   0.000984  -0.000296   0.000016
    18  H    0.000068   0.000001  -0.000002  -0.000004
    19  H    0.000000   0.000000  -0.000000  -0.000000
    20  H   -0.006154   0.000607   0.000032   0.000372
    21  C   -0.000336   0.000011   0.000005  -0.000030
    22  H    0.000011   0.000003   0.000000  -0.000013
    23  H    0.000005   0.000000  -0.000001   0.000001
    24  H   -0.000030  -0.000013   0.000001   0.000039
    25  C    5.082476   0.392281   0.435000   0.431359
    26  H    0.392281   0.537986  -0.027840  -0.026038
    27  H    0.435000  -0.027840   0.532679  -0.029263
    28  H    0.431359  -0.026038  -0.029263   0.535627
 Mulliken charges:
               1
     1  C   -0.211449
     2  C   -0.152220
     3  C   -0.146673
     4  C   -0.152187
     5  C   -0.211485
     6  C    0.106432
     7  H    0.140983
     8  H    0.163036
     9  H    0.143305
    10  H    0.163034
    11  C   -0.232306
    12  C    0.126361
    13  C   -0.278827
    14  C    0.132315
    15  C   -0.278802
    16  C    0.126418
    17  H    0.168229
    18  H    0.168227
    19  H    0.143301
    20  H    0.146205
    21  C   -0.483152
    22  H    0.158429
    23  H    0.148306
    24  H    0.144455
    25  C   -0.483115
    26  H    0.158424
    27  H    0.148301
    28  H    0.144457
 Sum of Mulliken charges =  -0.00000
 Mulliken charges with hydrogens summed into heavy atoms:
               1
     1  C   -0.048415
     2  C   -0.008915
     3  C   -0.005690
     4  C   -0.008886
     5  C   -0.048450
     6  C    0.106432
    11  C   -0.086102
    12  C    0.126361
    13  C   -0.110597
    14  C    0.132315
    15  C   -0.110575
    16  C    0.126418
    21  C   -0.031962
    25  C   -0.031934
 Electronic spatial extent (au):  <R**2>=           3436.1950
 Charge=             -0.0000 electrons
 Dipole moment (field-independent basis, Debye):
    X=              0.4114    Y=             -0.0000    Z=              0.0000  Tot=              0.4114
 Quadrupole moment (field-independent basis, Debye-Ang):
   XX=            -74.4281   YY=            -76.6132   ZZ=            -87.7921
   XY=             -0.0010   XZ=              0.0001   YZ=             -2.4153
 Traceless Quadrupole moment (field-independent basis, Debye-Ang):
   XX=              5.1830   YY=              2.9980   ZZ=             -8.1810
   XY=             -0.0010   XZ=              0.0001   YZ=             -2.4153
 Octapole moment (field-independent basis, Debye-Ang**2):
  XXX=             -6.6287  YYY=             -0.0015  ZZZ=              0.0002  XYY=              2.3897
  XXY=              0.0036  XXZ=              0.0013  XZZ=              2.8319  YZZ=             -0.0004
  YYZ=             -0.0003  XYZ=             11.7036
 Hexadecapole moment (field-independent basis, Debye-Ang**3):
 XXXX=          -3244.5471 YYYY=          -1089.4577 ZZZZ=           -205.6082 XXXY=             -0.0212
 XXXZ=              0.0072 YYYX=             -0.0089 YYYZ=             -9.9037 ZZZX=              0.0008
 ZZZY=             -4.1650 XXYY=           -741.4732 XXZZ=           -649.5685 YYZZ=           -208.5926
 XXYZ=            -32.6479 YYXZ=              0.0001 ZZXY=             -0.0000
 N-N= 7.889643157969D+02 E-N=-2.833684248381D+03  KE= 5.389427930742D+02
 ******************************Gaussian NBO Version 3.1******************************
             N A T U R A L   A T O M I C   O R B I T A L   A N D
          N A T U R A L   B O N D   O R B I T A L   A N A L Y S I S
 ******************************Gaussian NBO Version 3.1******************************
       /RESON  / : Allow strongly delocalized NBO set

 Analyzing the SCF density

 Job title: Structure697                                                    

 Storage needed:    807870 in NPA,   1075665 in NBO (1048571800 available)
 GSVD:  LWork=      103594 too small for GESVD, short by      223301 words or      223301 for optimal perf.


 NATURAL POPULATIONS:  Natural atomic orbital occupancies 
                                                          
   NAO  Atom  No  lang   Type(AO)    Occupancy      Energy
 ----------------------------------------------------------
     1    C    1  S      Cor( 1S)     1.99916     -10.37963
     2    C    1  S      Val( 2S)     0.96963      -0.22547
     3    C    1  S      Ryd( 3S)     0.00094       1.42910
     4    C    1  S      Ryd( 4S)     0.00011       1.48667
     5    C    1  S      Ryd( 5S)     0.00001      21.33840
     6    C    1  px     Val( 2p)     1.07892      -0.06483
     7    C    1  px     Ryd( 3p)     0.00309       1.16916
     8    C    1  px     Ryd( 4p)     0.00017       2.42789
     9    C    1  py     Val( 2p)     1.09639      -0.07691
    10    C    1  py     Ryd( 3p)     0.00349       0.99475
    11    C    1  py     Ryd( 4p)     0.00025       2.33928
    12    C    1  pz     Val( 2p)     1.03462      -0.10059
    13    C    1  pz     Ryd( 3p)     0.00201       0.78654
    14    C    1  pz     Ryd( 4p)     0.00032       1.76132
    15    C    1  dxy    Ryd( 3d)     0.00141       1.72329
    16    C    1  dxy    Ryd( 4d)     0.00061       3.44141
    17    C    1  dxz    Ryd( 3d)     0.00058       1.52238
    18    C    1  dxz    Ryd( 4d)     0.00034       3.17244
    19    C    1  dyz    Ryd( 3d)     0.00086       1.57088
    20    C    1  dyz    Ryd( 4d)     0.00017       3.26794
    21    C    1  dx2y2  Ryd( 3d)     0.00139       1.72911
    22    C    1  dx2y2  Ryd( 4d)     0.00037       3.40091
    23    C    1  dz2    Ryd( 3d)     0.00069       1.47521
    24    C    1  dz2    Ryd( 4d)     0.00007       3.14971
    25    C    1  f(0)   Ryd( 4f)     0.00021       3.54936
    26    C    1  f(C1)  Ryd( 4f)     0.00010       3.56007
    27    C    1  f(S1)  Ryd( 4f)     0.00020       3.34417
    28    C    1  f(C2)  Ryd( 4f)     0.00012       3.62459
    29    C    1  f(S2)  Ryd( 4f)     0.00011       3.74103
    30    C    1  f(C3)  Ryd( 4f)     0.00011       4.05272
    31    C    1  f(S3)  Ryd( 4f)     0.00006       3.86269
 
    32    C    2  S      Cor( 1S)     1.99924     -10.38071
    33    C    2  S      Val( 2S)     0.97554      -0.23244
    34    C    2  S      Ryd( 3S)     0.00087       1.15890
    35    C    2  S      Ryd( 4S)     0.00009       1.33182
    36    C    2  S      Ryd( 5S)     0.00000      21.63612
    37    C    2  px     Val( 2p)     1.07729      -0.06278
    38    C    2  px     Ryd( 3p)     0.00387       1.05406
    39    C    2  px     Ryd( 4p)     0.00026       2.19803
    40    C    2  py     Val( 2p)     1.10338      -0.08010
    41    C    2  py     Ryd( 3p)     0.00368       1.04731
    42    C    2  py     Ryd( 4p)     0.00020       1.93224
    43    C    2  pz     Val( 2p)     1.03200      -0.10241
    44    C    2  pz     Ryd( 3p)     0.00218       0.82450
    45    C    2  pz     Ryd( 4p)     0.00030       1.55463
    46    C    2  dxy    Ryd( 3d)     0.00099       1.77527
    47    C    2  dxy    Ryd( 4d)     0.00058       3.41673
    48    C    2  dxz    Ryd( 3d)     0.00045       1.52319
    49    C    2  dxz    Ryd( 4d)     0.00033       3.12087
    50    C    2  dyz    Ryd( 3d)     0.00085       1.54265
    51    C    2  dyz    Ryd( 4d)     0.00022       3.21449
    52    C    2  dx2y2  Ryd( 3d)     0.00156       1.65249
    53    C    2  dx2y2  Ryd( 4d)     0.00045       3.34907
    54    C    2  dz2    Ryd( 3d)     0.00050       1.44822
    55    C    2  dz2    Ryd( 4d)     0.00010       3.09745
    56    C    2  f(0)   Ryd( 4f)     0.00020       3.50317
    57    C    2  f(C1)  Ryd( 4f)     0.00009       3.55756
    58    C    2  f(S1)  Ryd( 4f)     0.00014       3.31295
    59    C    2  f(C2)  Ryd( 4f)     0.00011       3.62683
    60    C    2  f(S2)  Ryd( 4f)     0.00009       3.70496
    61    C    2  f(C3)  Ryd( 4f)     0.00006       4.04298
    62    C    2  f(S3)  Ryd( 4f)     0.00007       3.80901
 
    63    C    3  S      Cor( 1S)     1.99924     -10.37930
    64    C    3  S      Val( 2S)     0.97610      -0.23285
    65    C    3  S      Ryd( 3S)     0.00088       1.17565
    66    C    3  S      Ryd( 4S)     0.00009       1.34008
    67    C    3  S      Ryd( 5S)     0.00000      21.63525
    68    C    3  px     Val( 2p)     1.16966      -0.06909
    69    C    3  px     Ryd( 3p)     0.00458       1.19294
    70    C    3  px     Ryd( 4p)     0.00017       2.10302
    71    C    3  py     Val( 2p)     1.03755      -0.07454
    72    C    3  py     Ryd( 3p)     0.00317       0.92549
    73    C    3  py     Ryd( 4p)     0.00034       2.04518
    74    C    3  pz     Val( 2p)     1.01267      -0.10086
    75    C    3  pz     Ryd( 3p)     0.00219       0.76806
    76    C    3  pz     Ryd( 4p)     0.00038       1.58260
    77    C    3  dxy    Ryd( 3d)     0.00151       1.64311
    78    C    3  dxy    Ryd( 4d)     0.00042       3.19461
    79    C    3  dxz    Ryd( 3d)     0.00072       1.44498
    80    C    3  dxz    Ryd( 4d)     0.00019       2.93088
    81    C    3  dyz    Ryd( 3d)     0.00075       1.68523
    82    C    3  dyz    Ryd( 4d)     0.00015       3.33693
    83    C    3  dx2y2  Ryd( 3d)     0.00077       1.87834
    84    C    3  dx2y2  Ryd( 4d)     0.00067       3.39647
    85    C    3  dz2    Ryd( 3d)     0.00034       1.54711
    86    C    3  dz2    Ryd( 4d)     0.00023       3.08017
    87    C    3  f(0)   Ryd( 4f)     0.00011       3.49218
    88    C    3  f(C1)  Ryd( 4f)     0.00011       3.49417
    89    C    3  f(S1)  Ryd( 4f)     0.00017       3.46102
    90    C    3  f(C2)  Ryd( 4f)     0.00010       3.52881
    91    C    3  f(S2)  Ryd( 4f)     0.00016       3.79107
    92    C    3  f(C3)  Ryd( 4f)     0.00005       4.00393
    93    C    3  f(S3)  Ryd( 4f)     0.00005       3.74273
 
    94    C    4  S      Cor( 1S)     1.99924     -10.38072
    95    C    4  S      Val( 2S)     0.97555      -0.23246
    96    C    4  S      Ryd( 3S)     0.00087       1.15895
    97    C    4  S      Ryd( 4S)     0.00009       1.33185
    98    C    4  S      Ryd( 5S)     0.00000      21.63605
    99    C    4  px     Val( 2p)     1.07728      -0.06278
   100    C    4  px     Ryd( 3p)     0.00387       1.05405
   101    C    4  px     Ryd( 4p)     0.00026       2.19814
   102    C    4  py     Val( 2p)     1.10337      -0.08011
   103    C    4  py     Ryd( 3p)     0.00368       1.04735
   104    C    4  py     Ryd( 4p)     0.00020       1.93223
   105    C    4  pz     Val( 2p)     1.03200      -0.10241
   106    C    4  pz     Ryd( 3p)     0.00218       0.82453
   107    C    4  pz     Ryd( 4p)     0.00030       1.55466
   108    C    4  dxy    Ryd( 3d)     0.00099       1.77506
   109    C    4  dxy    Ryd( 4d)     0.00058       3.41681
   110    C    4  dxz    Ryd( 3d)     0.00045       1.52310
   111    C    4  dxz    Ryd( 4d)     0.00033       3.12107
   112    C    4  dyz    Ryd( 3d)     0.00085       1.54254
   113    C    4  dyz    Ryd( 4d)     0.00022       3.21460
   114    C    4  dx2y2  Ryd( 3d)     0.00156       1.65237
   115    C    4  dx2y2  Ryd( 4d)     0.00045       3.34918
   116    C    4  dz2    Ryd( 3d)     0.00050       1.44812
   117    C    4  dz2    Ryd( 4d)     0.00010       3.09756
   118    C    4  f(0)   Ryd( 4f)     0.00020       3.50313
   119    C    4  f(C1)  Ryd( 4f)     0.00009       3.55762
   120    C    4  f(S1)  Ryd( 4f)     0.00014       3.31290
   121    C    4  f(C2)  Ryd( 4f)     0.00011       3.62682
   122    C    4  f(S2)  Ryd( 4f)     0.00009       3.70498
   123    C    4  f(C3)  Ryd( 4f)     0.00006       4.04295
   124    C    4  f(S3)  Ryd( 4f)     0.00007       3.80895
 
   125    C    5  S      Cor( 1S)     1.99916     -10.37962
   126    C    5  S      Val( 2S)     0.96963      -0.22546
   127    C    5  S      Ryd( 3S)     0.00094       1.42913
   128    C    5  S      Ryd( 4S)     0.00011       1.48678
   129    C    5  S      Ryd( 5S)     0.00001      21.33824
   130    C    5  px     Val( 2p)     1.07892      -0.06484
   131    C    5  px     Ryd( 3p)     0.00309       1.16914
   132    C    5  px     Ryd( 4p)     0.00017       2.42778
   133    C    5  py     Val( 2p)     1.09639      -0.07690
   134    C    5  py     Ryd( 3p)     0.00349       0.99477
   135    C    5  py     Ryd( 4p)     0.00025       2.33923
   136    C    5  pz     Val( 2p)     1.03461      -0.10059
   137    C    5  pz     Ryd( 3p)     0.00201       0.78657
   138    C    5  pz     Ryd( 4p)     0.00032       1.76127
   139    C    5  dxy    Ryd( 3d)     0.00141       1.72335
   140    C    5  dxy    Ryd( 4d)     0.00061       3.44125
   141    C    5  dxz    Ryd( 3d)     0.00058       1.52249
   142    C    5  dxz    Ryd( 4d)     0.00034       3.17231
   143    C    5  dyz    Ryd( 3d)     0.00086       1.57104
   144    C    5  dyz    Ryd( 4d)     0.00017       3.26789
   145    C    5  dx2y2  Ryd( 3d)     0.00139       1.72921
   146    C    5  dx2y2  Ryd( 4d)     0.00037       3.40085
   147    C    5  dz2    Ryd( 3d)     0.00069       1.47530
   148    C    5  dz2    Ryd( 4d)     0.00007       3.14958
   149    C    5  f(0)   Ryd( 4f)     0.00021       3.54939
   150    C    5  f(C1)  Ryd( 4f)     0.00010       3.56008
   151    C    5  f(S1)  Ryd( 4f)     0.00020       3.34424
   152    C    5  f(C2)  Ryd( 4f)     0.00012       3.62465
   153    C    5  f(S2)  Ryd( 4f)     0.00011       3.74101
   154    C    5  f(C3)  Ryd( 4f)     0.00011       4.05272
   155    C    5  f(S3)  Ryd( 4f)     0.00006       3.86266
 
   156    C    6  S      Cor( 1S)     1.99911     -10.38916
   157    C    6  S      Val( 2S)     0.91107      -0.19910
   158    C    6  S      Ryd( 3S)     0.00079       1.57386
   159    C    6  S      Ryd( 4S)     0.00009       1.59554
   160    C    6  S      Ryd( 5S)     0.00000      21.42417
   161    C    6  px     Val( 2p)     1.04358      -0.05348
   162    C    6  px     Ryd( 3p)     0.00632       1.25128
   163    C    6  px     Ryd( 4p)     0.00046       1.88999
   164    C    6  py     Val( 2p)     1.05569      -0.07710
   165    C    6  py     Ryd( 3p)     0.00408       1.10246
   166    C    6  py     Ryd( 4p)     0.00040       1.47464
   167    C    6  pz     Val( 2p)     1.01918      -0.09838
   168    C    6  pz     Ryd( 3p)     0.00162       0.86431
   169    C    6  pz     Ryd( 4p)     0.00027       1.36898
   170    C    6  dxy    Ryd( 3d)     0.00140       2.15445
   171    C    6  dxy    Ryd( 4d)     0.00039       3.44694
   172    C    6  dxz    Ryd( 3d)     0.00050       1.48183
   173    C    6  dxz    Ryd( 4d)     0.00030       3.38699
   174    C    6  dyz    Ryd( 3d)     0.00043       1.75288
   175    C    6  dyz    Ryd( 4d)     0.00026       3.41372
   176    C    6  dx2y2  Ryd( 3d)     0.00108       2.28782
   177    C    6  dx2y2  Ryd( 4d)     0.00054       3.51428
   178    C    6  dz2    Ryd( 3d)     0.00033       1.57698
   179    C    6  dz2    Ryd( 4d)     0.00034       3.53643
   180    C    6  f(0)   Ryd( 4f)     0.00007       3.68618
   181    C    6  f(C1)  Ryd( 4f)     0.00006       3.73538
   182    C    6  f(S1)  Ryd( 4f)     0.00009       3.49089
   183    C    6  f(C2)  Ryd( 4f)     0.00007       3.77371
   184    C    6  f(S2)  Ryd( 4f)     0.00006       3.91477
   185    C    6  f(C3)  Ryd( 4f)     0.00009       4.14896
   186    C    6  f(S3)  Ryd( 4f)     0.00003       4.18196
 
   187    H    7  S      Val( 1S)     0.78743       0.05314
   188    H    7  S      Ryd( 2S)     0.00032       1.01772
   189    H    7  S      Ryd( 3S)     0.00018       1.77855
   190    H    7  px     Ryd( 2p)     0.00042       3.02963
   191    H    7  py     Ryd( 2p)     0.00005       2.63411
   192    H    7  pz     Ryd( 2p)     0.00006       2.33804
 
   193    H    8  S      Val( 1S)     0.78479       0.05386
   194    H    8  S      Ryd( 3S)     0.00046       1.48822
   195    H    8  S      Ryd( 2S)     0.00014       1.47956
   196    H    8  px     Ryd( 2p)     0.00018       2.87174
   197    H    8  py     Ryd( 2p)     0.00027       2.79225
   198    H    8  pz     Ryd( 2p)     0.00015       2.42424
 
   199    H    9  S      Val( 1S)     0.78541       0.05248
   200    H    9  S      Ryd( 2S)     0.00033       1.09889
   201    H    9  S      Ryd( 3S)     0.00019       1.68745
   202    H    9  px     Ryd( 2p)     0.00014       2.85224
   203    H    9  py     Ryd( 2p)     0.00025       2.76965
   204    H    9  pz     Ryd( 2p)     0.00013       2.38719
 
   205    H   10  S      Val( 1S)     0.78479       0.05381
   206    H   10  S      Ryd( 3S)     0.00046       1.48797
   207    H   10  S      Ryd( 2S)     0.00014       1.47980
   208    H   10  px     Ryd( 2p)     0.00018       2.87167
   209    H   10  py     Ryd( 2p)     0.00027       2.79215
   210    H   10  pz     Ryd( 2p)     0.00015       2.42415
 
   211    C   11  S      Cor( 1S)     1.99903     -10.36743
   212    C   11  S      Val( 2S)     0.96218      -0.21201
   213    C   11  S      Ryd( 4S)     0.00049       1.56989
   214    C   11  S      Ryd( 3S)     0.00017       1.37897
   215    C   11  S      Ryd( 5S)     0.00000      21.43663
   216    C   11  px     Val( 2p)     1.16800      -0.06630
   217    C   11  px     Ryd( 3p)     0.00329       1.30059
   218    C   11  px     Ryd( 4p)     0.00053       1.77286
   219    C   11  py     Val( 2p)     1.04889      -0.05890
   220    C   11  py     Ryd( 3p)     0.00251       1.11395
   221    C   11  py     Ryd( 4p)     0.00027       2.54759
   222    C   11  pz     Val( 2p)     1.02303      -0.10985
   223    C   11  pz     Ryd( 3p)     0.00163       0.71895
   224    C   11  pz     Ryd( 4p)     0.00101       1.51708
   225    C   11  dxy    Ryd( 3d)     0.00244       1.77041
   226    C   11  dxy    Ryd( 4d)     0.00017       3.38316
   227    C   11  dxz    Ryd( 3d)     0.00042       1.39242
   228    C   11  dxz    Ryd( 4d)     0.00008       2.81744
   229    C   11  dyz    Ryd( 3d)     0.00011       1.52588
   230    C   11  dyz    Ryd( 4d)     0.00024       3.02181
   231    C   11  dx2y2  Ryd( 3d)     0.00086       2.10782
   232    C   11  dx2y2  Ryd( 4d)     0.00060       3.71183
   233    C   11  dz2    Ryd( 3d)     0.00092       1.66439
   234    C   11  dz2    Ryd( 4d)     0.00005       3.33358
   235    C   11  f(0)   Ryd( 4f)     0.00026       3.34997
   236    C   11  f(C1)  Ryd( 4f)     0.00018       3.50949
   237    C   11  f(S1)  Ryd( 4f)     0.00018       3.60982
   238    C   11  f(C2)  Ryd( 4f)     0.00003       3.43562
   239    C   11  f(S2)  Ryd( 4f)     0.00002       3.51844
   240    C   11  f(C3)  Ryd( 4f)     0.00009       4.35569
   241    C   11  f(S3)  Ryd( 4f)     0.00004       4.00442
 
   242    C   12  S      Cor( 1S)     1.99919     -10.38639
   243    C   12  S      Val( 2S)     0.91955      -0.20973
   244    C   12  S      Ryd( 4S)     0.00055       1.49882
   245    C   12  S      Ryd( 3S)     0.00009       1.32493
   246    C   12  S      Ryd( 5S)     0.00000      21.39661
   247    C   12  px     Val( 2p)     1.05559      -0.05369
   248    C   12  px     Ryd( 3p)     0.00337       1.18452
   249    C   12  px     Ryd( 4p)     0.00020       2.39773
   250    C   12  py     Val( 2p)     1.03696      -0.05400
   251    C   12  py     Ryd( 3p)     0.00368       1.30553
   252    C   12  py     Ryd( 4p)     0.00019       2.22856
   253    C   12  pz     Val( 2p)     0.97433      -0.10011
   254    C   12  pz     Ryd( 3p)     0.00186       0.73779
   255    C   12  pz     Ryd( 4p)     0.00048       1.49652
   256    C   12  dxy    Ryd( 3d)     0.00143       1.95643
   257    C   12  dxy    Ryd( 4d)     0.00070       3.65614
   258    C   12  dxz    Ryd( 3d)     0.00015       1.23203
   259    C   12  dxz    Ryd( 4d)     0.00038       3.35371
   260    C   12  dyz    Ryd( 3d)     0.00019       1.23336
   261    C   12  dyz    Ryd( 4d)     0.00034       3.36138
   262    C   12  dx2y2  Ryd( 3d)     0.00191       1.77766
   263    C   12  dx2y2  Ryd( 4d)     0.00079       3.63745
   264    C   12  dz2    Ryd( 3d)     0.00020       1.65044
   265    C   12  dz2    Ryd( 4d)     0.00014       3.56842
   266    C   12  f(0)   Ryd( 4f)     0.00018       3.43841
   267    C   12  f(C1)  Ryd( 4f)     0.00017       3.61055
   268    C   12  f(S1)  Ryd( 4f)     0.00016       3.53357
   269    C   12  f(C2)  Ryd( 4f)     0.00002       3.55339
   270    C   12  f(S2)  Ryd( 4f)     0.00002       3.52118
   271    C   12  f(C3)  Ryd( 4f)     0.00002       4.45517
   272    C   12  f(S3)  Ryd( 4f)     0.00003       4.26235
 
   273    C   13  S      Cor( 1S)     1.99906     -10.37055
   274    C   13  S      Val( 2S)     0.96009      -0.21090
   275    C   13  S      Ryd( 4S)     0.00057       1.55768
   276    C   13  S      Ryd( 3S)     0.00015       1.41211
   277    C   13  S      Ryd( 5S)     0.00000      21.38226
   278    C   13  px     Val( 2p)     1.07770      -0.06037
   279    C   13  px     Ryd( 3p)     0.00226       1.20112
   280    C   13  px     Ryd( 4p)     0.00016       2.47142
   281    C   13  py     Val( 2p)     1.13191      -0.06286
   282    C   13  py     Ryd( 3p)     0.00340       1.20593
   283    C   13  py     Ryd( 4p)     0.00043       2.26070
   284    C   13  pz     Val( 2p)     1.02641      -0.10996
   285    C   13  pz     Ryd( 3p)     0.00169       0.69087
   286    C   13  pz     Ryd( 4p)     0.00072       1.59061
   287    C   13  dxy    Ryd( 3d)     0.00149       1.99627
   288    C   13  dxy    Ryd( 4d)     0.00046       3.67531
   289    C   13  dxz    Ryd( 3d)     0.00016       1.48033
   290    C   13  dxz    Ryd( 4d)     0.00019       3.01359
   291    C   13  dyz    Ryd( 3d)     0.00045       1.43673
   292    C   13  dyz    Ryd( 4d)     0.00011       2.93196
   293    C   13  dx2y2  Ryd( 3d)     0.00191       1.85913
   294    C   13  dx2y2  Ryd( 4d)     0.00037       3.51056
   295    C   13  dz2    Ryd( 3d)     0.00123       1.65465
   296    C   13  dz2    Ryd( 4d)     0.00003       3.38673
   297    C   13  f(0)   Ryd( 4f)     0.00031       3.36082
   298    C   13  f(C1)  Ryd( 4f)     0.00017       3.60079
   299    C   13  f(S1)  Ryd( 4f)     0.00021       3.54560
   300    C   13  f(C2)  Ryd( 4f)     0.00002       3.50321
   301    C   13  f(S2)  Ryd( 4f)     0.00006       3.48121
   302    C   13  f(C3)  Ryd( 4f)     0.00012       4.33281
   303    C   13  f(S3)  Ryd( 4f)     0.00004       4.03807
 
   304    C   14  S      Cor( 1S)     1.99912     -10.38703
   305    C   14  S      Val( 2S)     0.90781      -0.19330
   306    C   14  S      Ryd( 4S)     0.00061       1.61114
   307    C   14  S      Ryd( 3S)     0.00011       1.58597
   308    C   14  S      Ryd( 5S)     0.00000      21.32546
   309    C   14  px     Val( 2p)     1.03851      -0.04775
   310    C   14  px     Ryd( 3p)     0.00480       1.33071
   311    C   14  px     Ryd( 4p)     0.00044       1.88259
   312    C   14  py     Val( 2p)     1.07124      -0.06134
   313    C   14  py     Ryd( 3p)     0.00447       1.22001
   314    C   14  py     Ryd( 4p)     0.00046       1.59197
   315    C   14  pz     Val( 2p)     0.99195      -0.10366
   316    C   14  pz     Ryd( 3p)     0.00204       0.83962
   317    C   14  pz     Ryd( 4p)     0.00017       1.31135
   318    C   14  dxy    Ryd( 3d)     0.00077       2.45262
   319    C   14  dxy    Ryd( 4d)     0.00054       3.60639
   320    C   14  dxz    Ryd( 3d)     0.00036       1.30633
   321    C   14  dxz    Ryd( 4d)     0.00022       3.36055
   322    C   14  dyz    Ryd( 3d)     0.00005       1.30905
   323    C   14  dyz    Ryd( 4d)     0.00043       3.36104
   324    C   14  dx2y2  Ryd( 3d)     0.00112       2.46790
   325    C   14  dx2y2  Ryd( 4d)     0.00068       3.62102
   326    C   14  dz2    Ryd( 3d)     0.00043       1.91983
   327    C   14  dz2    Ryd( 4d)     0.00015       3.64500
   328    C   14  f(0)   Ryd( 4f)     0.00012       3.51941
   329    C   14  f(C1)  Ryd( 4f)     0.00010       3.76140
   330    C   14  f(S1)  Ryd( 4f)     0.00008       3.71260
   331    C   14  f(C2)  Ryd( 4f)     0.00003       3.59523
   332    C   14  f(S2)  Ryd( 4f)     0.00003       3.63980
   333    C   14  f(C3)  Ryd( 4f)     0.00008       4.42215
   334    C   14  f(S3)  Ryd( 4f)     0.00002       4.35355
 
   335    C   15  S      Cor( 1S)     1.99906     -10.37053
   336    C   15  S      Val( 2S)     0.96007      -0.21088
   337    C   15  S      Ryd( 4S)     0.00058       1.55779
   338    C   15  S      Ryd( 3S)     0.00015       1.41204
   339    C   15  S      Ryd( 5S)     0.00000      21.38197
   340    C   15  px     Val( 2p)     1.07772      -0.06037
   341    C   15  px     Ryd( 3p)     0.00226       1.20112
   342    C   15  px     Ryd( 4p)     0.00016       2.47154
   343    C   15  py     Val( 2p)     1.13192      -0.06287
   344    C   15  py     Ryd( 3p)     0.00340       1.20598
   345    C   15  py     Ryd( 4p)     0.00043       2.26084
   346    C   15  pz     Val( 2p)     1.02642      -0.10995
   347    C   15  pz     Ryd( 3p)     0.00169       0.69092
   348    C   15  pz     Ryd( 4p)     0.00072       1.59062
   349    C   15  dxy    Ryd( 3d)     0.00149       1.99616
   350    C   15  dxy    Ryd( 4d)     0.00046       3.67540
   351    C   15  dxz    Ryd( 3d)     0.00016       1.48028
   352    C   15  dxz    Ryd( 4d)     0.00019       3.01374
   353    C   15  dyz    Ryd( 3d)     0.00045       1.43665
   354    C   15  dyz    Ryd( 4d)     0.00011       2.93207
   355    C   15  dx2y2  Ryd( 3d)     0.00191       1.85909
   356    C   15  dx2y2  Ryd( 4d)     0.00037       3.51062
   357    C   15  dz2    Ryd( 3d)     0.00123       1.65455
   358    C   15  dz2    Ryd( 4d)     0.00003       3.38678
   359    C   15  f(0)   Ryd( 4f)     0.00031       3.36084
   360    C   15  f(C1)  Ryd( 4f)     0.00017       3.60089
   361    C   15  f(S1)  Ryd( 4f)     0.00021       3.54557
   362    C   15  f(C2)  Ryd( 4f)     0.00002       3.50325
   363    C   15  f(S2)  Ryd( 4f)     0.00006       3.48127
   364    C   15  f(C3)  Ryd( 4f)     0.00012       4.33294
   365    C   15  f(S3)  Ryd( 4f)     0.00004       4.03809
 
   366    C   16  S      Cor( 1S)     1.99919     -10.38637
   367    C   16  S      Val( 2S)     0.91953      -0.20971
   368    C   16  S      Ryd( 4S)     0.00055       1.49876
   369    C   16  S      Ryd( 3S)     0.00009       1.32495
   370    C   16  S      Ryd( 5S)     0.00000      21.39675
   371    C   16  px     Val( 2p)     1.05562      -0.05369
   372    C   16  px     Ryd( 3p)     0.00337       1.18452
   373    C   16  px     Ryd( 4p)     0.00020       2.39773
   374    C   16  py     Val( 2p)     1.03698      -0.05400
   375    C   16  py     Ryd( 3p)     0.00368       1.30557
   376    C   16  py     Ryd( 4p)     0.00019       2.22846
   377    C   16  pz     Val( 2p)     0.97433      -0.10010
   378    C   16  pz     Ryd( 3p)     0.00186       0.73783
   379    C   16  pz     Ryd( 4p)     0.00048       1.49652
   380    C   16  dxy    Ryd( 3d)     0.00143       1.95629
   381    C   16  dxy    Ryd( 4d)     0.00070       3.65627
   382    C   16  dxz    Ryd( 3d)     0.00015       1.23206
   383    C   16  dxz    Ryd( 4d)     0.00038       3.35374
[...]
 16298,-0.00091921,-0.00078044,-0.02509799,0.00884212,0.53451030,-0.000
 02885,-0.00006214,-0.00001626,0.00000942,0.00001317,0.00000570,-0.0000
 0562,-0.00002987,-0.00001770,0.00000987,0.00000434,-0.00000477,-0.0000
 4561,-0.00003989,-0.00001845,-0.00001265,0.00017838,0.00002337,-0.0000
 0033,-0.00000770,-0.00000152,-0.00001000,0.00000694,0.00001785,-0.0000
 0705,-0.00000630,-0.00000561,0.00002864,0.00001086,0.00000778,0.000586
 50,-0.00091398,-0.00097548,0.00053398,0.00019540,-0.00112445,-0.000255
 00,-0.00017909,0.00002507,0.00020805,0.00040489,-0.00122408,0.00016646
 ,0.00140276,-0.00024815,-0.02235601,-0.00498945,0.00672198,-0.00009263
 ,-0.00001444,0.00009343,-0.00047309,-0.00024454,0.00040305,0.00000104,
 -0.00001395,-0.00000870,-0.00057176,0.00013693,0.00054728,-0.24636906,
 -0.05370121,0.10433279,0.26989011,0.00002935,-0.00000280,0.00000231,-0
 .00000115,-0.00001062,0.00000063,-0.00000765,0.00000308,0.00000378,0.0
 0001577,-0.00000070,0.00001004,-0.00005378,0.00000051,-0.00002348,-0.0
 0003634,-0.00002175,-0.00000008,0.00000193,0.00000306,-0.00000183,-0.0
 0000752,0.00000067,-0.00001378,0.00000159,-0.00000096,-0.00000109,-0.0
 0000376,0.00000171,-0.00000510,0.00130934,-0.00063133,0.00168613,-0.00
 132928,-0.00063362,-0.00084449,0.00004358,0.00127444,0.00035685,0.0011
 3967,-0.00066678,0.00038554,-0.00097650,-0.00017491,-0.00168531,0.0026
 9394,0.00086374,-0.00189114,-0.00004170,0.00000582,0.00002487,-0.00028
 962,-0.00007344,0.00020355,-0.00000272,-0.00000479,-0.00000364,0.00011
 771,-0.00015894,-0.00018445,-0.05275419,-0.05917794,0.02716516,0.05833
 765,0.06011455,-0.00001245,-0.00003469,0.00000865,0.00000342,0.0000088
 8,0.00000831,-0.00000179,-0.00001642,-0.00000708,0.00001284,-0.0000008
 2,-0.00000853,-0.00004068,-0.00001726,-0.00000386,-0.00004443,0.000075
 13,0.00001700,0.00000111,-0.00000368,-0.00000128,-0.00000346,0.0000037
 9,0.00001260,-0.00000299,-0.00000285,-0.00000555,0.00002044,0.00001527
 ,0.00000219,0.00003785,-0.00034768,-0.00006377,0.00054146,-0.00004166,
 -0.00068023,-0.00050683,0.00015657,-0.00023097,0.00091984,0.00012953,-
 0.00064246,-0.00061555,0.00046627,-0.00090392,-0.02206172,-0.00581989,
 0.01021609,0.00001199,0.00000230,0.00002820,-0.00020901,-0.00031566,0.
 00028383,0.00000009,-0.00000749,-0.00000563,-0.00002380,0.00016760,0.0
 0027776,0.10088197,0.02679804,-0.09524345,-0.10922152,-0.02986508,0.10
 363949,-0.00002939,-0.00000089,-0.00000503,0.00000349,0.00000652,0.000
 00214,0.00000650,-0.00000699,-0.00000348,-0.00000626,-0.00001373,-0.00
 000232,0.00001489,-0.00001180,0.00000525,0.00002488,-0.00000913,0.0000
 5504,0.00000079,0.00000057,-0.00000167,0.00000914,-0.00000154,-0.00000
 706,-0.00000075,0.00000118,-0.00000069,0.00000588,0.00000273,-0.000005
 85,-0.00254519,-0.00085708,-0.00375632,-0.00088411,0.00095178,0.000122
 67,0.00010107,0.00017400,0.00002883,-0.00017094,-0.00007184,0.00026592
 ,0.00069289,0.00100201,0.00122758,-0.00359578,0.02544375,-0.00906194,0
 .00002096,-0.00004668,-0.00003806,0.00038866,-0.00059168,-0.00025783,0
 .00000128,0.00000232,0.00000112,0.00006096,-0.00005746,-0.00013227,-0.
 04534003,0.01321808,-0.00532889,0.00255536,-0.02732148,0.00917632,0.05
 051359,0.00000620,0.00003925,0.00001489,-0.00000729,0.00000061,0.00000
 256,0.00000904,0.00002150,0.00001288,-0.00000091,0.00000222,-0.0000085
 7,0.00002924,0.00003619,0.00002135,-0.00002274,-0.00006794,-0.00000273
 ,0.00000053,0.00000270,0.00000275,0.00000782,-0.00000770,0.00000588,0.
 00000483,0.00000338,0.00000419,-0.00001212,-0.00000716,-0.00000036,0.0
 0037717,0.00035333,0.00098747,-0.00026309,-0.00017170,-0.00040293,-0.0
 0007782,0.00042995,0.00001622,0.00073358,0.00014731,-0.00003020,-0.001
 25667,0.00056740,-0.00175741,0.00073070,-0.00159450,-0.00038064,-0.000
 07177,0.00001175,0.00012469,-0.00025035,0.00033191,0.00052968,-0.00000
 102,0.00000704,0.00000766,-0.00018534,0.00034522,0.00000862,0.01593955
 ,-0.28554102,0.08998162,0.00028722,-0.00601347,0.00162539,-0.01639129,
 0.30792045,-0.00003706,-0.00000253,-0.00000118,0.00002985,0.00001106,0
 .00000449,0.00000660,-0.00001547,-0.00001051,0.00001165,-0.00002028,0.
 00000068,-0.00006158,-0.00003594,0.00000915,0.00007821,0.00004791,0.00
 002959,0.00000432,-0.00000028,-0.00000026,0.00001324,0.00000711,-0.000
 03928,0.00000127,0.00000140,0.00000055,0.00002673,0.00000080,0.0000006
 0,-0.00300397,-0.00097384,-0.00249460,-0.00016908,0.00092432,0.0010875
 0,-0.00005494,-0.00043699,-0.00023851,-0.00021148,0.00014115,-0.000078
 83,0.00033909,0.00127849,0.00141231,-0.00004458,0.02003784,-0.00766571
 ,0.00001992,-0.00006241,0.00000901,-0.00010272,-0.00083967,-0.00033812
 ,-0.00000175,-0.00000622,-0.00000800,0.00012138,0.00025259,-0.00014042
 ,-0.00643252,0.08810954,-0.08199528,-0.00123359,0.01364597,-0.00564537
 ,0.00991618,-0.09845323,0.08565009,-0.00001522,-0.00010930,-0.00006653
 ,-0.00002754,-0.00000858,0.00001470,-0.00000435,-0.00001027,-0.0000055
 9,0.00000844,-0.00000352,0.00000305,-0.00001071,-0.00001553,-0.0000113
 0,-0.00025234,0.00018161,-0.00006447,0.00000047,-0.00000091,-0.0000036
 1,-0.00000964,0.00000111,-0.00000526,-0.00000577,-0.00000924,-0.000007
 59,0.00000714,0.00000630,-0.00000945,0.00065104,-0.00116161,0.00043199
 ,-0.00002158,-0.00015539,0.00030039,0.00009478,-0.00025812,-0.00013486
 ,-0.00096481,-0.00090329,-0.00022568,-0.00257452,0.00163542,-0.0027389
 4,0.00202725,-0.01779985,-0.02101722,0.00000410,0.00004583,-0.00000276
 ,0.00011237,0.00007733,-0.00021093,-0.00000084,-0.00000744,-0.00000663
 ,0.00030888,0.00050034,0.00012319,-0.04971508,0.02673816,0.03098410,-0
 .00367698,0.01906154,0.02117896,-0.00155605,0.00035606,0.00091397,0.05
 560211,0.00002356,-0.00002210,-0.00000548,-0.00001308,-0.00000201,-0.0
 0000567,-0.00001059,-0.00000705,-0.00000321,-0.00000934,0.00001374,0.0
 0000453,0.00002263,-0.00000710,-0.00002312,-0.00002056,0.00002882,0.00
 000441,-0.00000380,-0.00000260,-0.00000146,-0.00001263,0.00000143,0.00
 002449,-0.00000510,-0.00000353,-0.00000393,-0.00001024,0.00000757,0.00
 000298,0.00106764,0.00037931,0.00149349,-0.00083734,-0.00001457,-0.000
 00308,0.00013019,0.00026590,0.00024716,0.00011142,-0.00000621,0.000013
 76,0.00013877,0.00018232,-0.00053382,-0.00206614,0.00095921,0.00273041
 ,0.00007187,0.00005457,-0.00013453,0.00012782,0.00043470,0.00010485,0.
 00000236,-0.00000140,0.00000120,0.00032343,0.00014502,-0.00036827,0.02
 539160,-0.15544318,-0.13044590,-0.00078463,0.00530550,0.00704209,0.004
 58790,-0.01683115,-0.02357841,-0.02818669,0.16452451,-0.00000379,-0.00
 007104,-0.00005558,-0.00001738,-0.00002202,0.00001975,-0.00001009,-0.0
 0001564,-0.00001054,-0.00000916,-0.00000142,0.00001074,0.00000551,-0.0
 0001968,-0.00001992,-0.00015612,0.00018188,-0.00010714,-0.00000260,-0.
 00000349,-0.00000841,-0.00001367,0.00002075,0.00000110,-0.00000924,-0.
 00000935,-0.00000689,0.00001097,0.00001363,-0.00001273,0.00076923,-0.0
 0163654,0.00169449,-0.00058771,-0.00019697,-0.00009435,-0.00007494,0.0
 0060662,-0.00002322,0.00003623,-0.00112831,0.00066153,-0.00274176,0.00
 161027,-0.00219380,0.00316642,-0.01310957,-0.01555844,0.00003924,0.000
 08657,-0.00001609,0.00017779,0.00000380,-0.00014199,0.00000238,-0.0000
 0887,-0.00000652,0.00002467,0.00102527,-0.00024327,0.02892218,-0.12951
 369,-0.20596886,0.00192660,-0.00895170,-0.01109197,-0.00200072,0.00761
 718,0.01071362,-0.02948048,0.14348194,0.22246016,-0.00008060,-0.000025
 56,0.00002080,0.00000964,0.00002198,-0.00003937,0.00000722,-0.00001582
 ,-0.00000365,0.00003483,-0.00002089,-0.00008265,-0.00012047,-0.0002089
 5,-0.00007539,0.00041301,-0.00043403,0.00028259,0.00000070,-0.00000755
 ,0.00000993,0.00000405,-0.00003929,0.00000306,-0.00000476,-0.00000685,
 -0.00000221,-0.00000643,-0.00005199,-0.00000208,-0.01051073,0.02505720
 ,-0.00621754,-0.10576197,0.05358629,-0.01653938,0.00890725,-0.00532384
 ,0.00084541,0.00334459,-0.00208534,-0.00529706,-0.00090934,0.00078501,
 0.00036588,0.00112836,-0.00156985,-0.00486845,-0.00179602,-0.00158483,
 0.00255084,-0.00028471,-0.00011101,0.00046187,-0.00000148,-0.00001639,
 -0.00001468,-0.00084635,0.00011457,0.00195318,-0.00013212,0.00068257,0
 .00003982,-0.00004498,0.00005698,-0.00001205,-0.00021987,0.00002414,-0
 .00010169,0.00002584,-0.00001198,0.00001673,0.54803469,0.00000919,0.00
 003645,0.00001766,-0.00001709,-0.00000878,-0.00001966,-0.00000240,0.00
 001416,0.00001277,0.00005921,-0.00000390,-0.00006447,-0.00011647,-0.00
 015982,-0.00007205,0.00057477,-0.00039844,0.00023657,-0.00000316,-0.00
 000538,0.00000553,-0.00000231,-0.00001809,0.00001851,-0.00000135,-0.00
 000142,-0.00000191,-0.00002691,-0.00000903,0.00000909,0.00673517,-0.00
 478922,0.00428687,0.05543783,-0.19398046,0.01463325,0.01371140,-0.0287
 9754,0.00240336,-0.00103668,-0.00022710,-0.00312478,-0.00021168,-0.001
 02698,-0.00006727,-0.00131988,0.00245815,-0.00107289,0.00031120,0.0013
 1139,0.00169352,0.00006449,0.00002880,0.00002433,-0.00000505,-0.000014
 09,-0.00001070,-0.00119436,0.00090385,-0.00110616,-0.00007174,0.000292
 96,-0.00010639,-0.00004676,-0.00000601,-0.00001639,-0.00010695,0.00003
 083,-0.00008002,0.00002191,-0.00000388,-0.00002092,0.03548292,0.516616
 09,0.00007652,0.00001272,-0.00008528,-0.00002117,0.00000513,-0.0000029
 5,-0.00002145,-0.00003914,-0.00002559,0.00005703,0.00000964,-0.0000185
 5,-0.00012339,-0.00007997,-0.00015676,0.00048520,-0.00041837,0.0003844
 9,-0.00000526,-0.00000681,-0.00000548,0.00000788,0.00002730,0.00003377
 ,-0.00001725,-0.00002032,-0.00000359,0.00000297,0.00003418,0.00006894,
 -0.01203236,0.02144824,0.00080949,-0.01904467,0.01782797,-0.08351704,0
 .00647292,-0.01396148,0.00635231,-0.00404332,-0.00252631,0.00147402,0.
 00052949,-0.00077174,-0.00085539,-0.00686148,-0.00082498,0.00112699,0.
 00191682,-0.00064630,-0.00126763,0.00035604,0.00020106,-0.00026119,-0.
 00000448,-0.00003011,-0.00000953,0.00255136,0.00135335,-0.00124224,-0.
 00002893,0.00099117,-0.00000667,-0.00002408,-0.00003222,0.00001291,-0.
 00019629,0.00006453,-0.00025497,0.00005201,-0.00004074,0.00000232,0.01
 817219,0.01232044,0.56880893,0.00001504,0.00000930,0.00002099,-0.00000
 300,0.00000522,-0.00000457,0.00001438,0.00001860,0.00000946,-0.0000010
 6,-0.00000924,-0.00001157,-0.00000372,0.00004186,0.00003442,-0.0000516
 3,-0.00006043,-0.00010966,0.00000191,0.00000244,0.00000632,0.00001133,
 -0.00001684,-0.00000487,0.00000617,0.00000404,0.00000307,-0.00001022,-
 0.00001379,0.00000580,0.00051881,0.00149412,-0.00043025,-0.01012559,0.
 00429951,0.00771242,-0.00015018,-0.00144370,-0.00071957,-0.00053826,0.
 00095998,-0.00076876,0.00036075,0.00033944,0.00065450,0.00060674,-0.00
 033777,-0.00082087,-0.00016041,-0.00001024,0.00017880,-0.00005822,-0.0
 0001255,0.00005742,-0.00000204,0.00000584,0.00000356,-0.00062914,-0.00
 016054,0.00026102,-0.00003243,0.00004495,0.00003993,-0.00001052,0.0000
 0885,-0.00000945,-0.00002018,0.00000904,-0.00000609,-0.00001540,-0.000
 01408,-0.00001111,-0.18937610,0.02362205,0.13165930,0.20455264,0.00003
 624,-0.00006005,-0.00004067,-0.00001769,0.00000474,0.00001019,-0.00001
 215,-0.00002203,-0.00001792,0.00000248,0.00001464,0.00000630,-0.000016
 08,-0.00002511,-0.00005394,0.00012051,0.00003651,0.00008856,-0.0000046
 5,-0.00000300,-0.00000333,-0.00001408,0.00002311,0.00002238,-0.0000098
 6,-0.00001247,-0.00000720,0.00001598,0.00000952,-0.00000465,-0.0010249
 0,0.00004387,-0.00052162,0.02316152,-0.00657149,-0.01976627,0.00065351
 ,-0.00116775,0.00125907,-0.00123464,-0.00022306,0.00093818,0.00061037,
 -0.00019686,0.00021260,-0.00073900,-0.00099719,0.00063758,0.00035481,0
 .00005003,-0.00071244,0.00006051,0.00003858,-0.00005346,-0.00000067,-0
 .00001055,-0.00000277,0.00042810,0.00028179,-0.00015996,-0.00000931,-0
 .00002708,-0.00003101,0.00001806,0.00000582,0.00000519,0.00002910,-0.0
 0000974,-0.00002253,0.00000968,0.00002344,0.00001006,0.02590347,-0.047
 78666,-0.02412073,-0.02978913,0.05387984,0.00002318,-0.00003918,-0.000
 00414,-0.00000426,0.00001441,-0.00000163,0.00000661,-0.00000294,-0.000
 00092,-0.00000512,-0.00000344,-0.00000697,-0.00002200,0.00000283,0.000
 00568,0.00001093,-0.00000654,-0.00000213,-0.00000027,0.00000006,0.0000
 0222,0.00000112,-0.00000498,-0.00000180,-0.00000163,-0.00000494,-0.000
 00295,0.00000304,-0.00001324,0.00000403,-0.00097984,0.00133826,-0.0006
 7162,-0.00511230,-0.00020382,0.00542081,0.00008950,-0.00105861,0.00040
 595,-0.00062427,0.00033434,-0.00033984,0.00041291,0.00070357,0.0006246
 9,0.00053253,-0.00129966,-0.00038945,0.00028934,-0.00000476,-0.0001524
 2,0.00006701,-0.00000390,-0.00003907,-0.00000112,-0.00000021,-0.000000
 81,-0.00006079,-0.00017663,-0.00010557,-0.00004982,-0.00001768,0.00002
 142,0.00000332,0.00002359,-0.00000072,0.00000428,-0.00000163,0.0000112
 0,-0.00000712,-0.00000099,0.00000830,0.13005005,-0.02185216,-0.1636274
 5,-0.14361414,0.02424680,0.17521152,0.00002458,0.00000381,0.00000375,-
 0.00000447,0.00000401,0.00000855,0.00000634,0.00000866,0.00000687,-0.0
 0000283,0.00000163,-0.00000083,-0.00000013,0.00002220,0.00001531,-0.00
 001083,-0.00003723,0.00000657,0.00000040,0.00000282,-0.00000029,0.0000
 0082,0.00000118,-0.00000751,0.00000161,-0.00000085,-0.00000116,-0.0000
 0159,-0.00000278,0.00000159,0.00004682,0.00310333,-0.00043417,-0.00864
 147,0.00110443,-0.01395266,0.00036474,-0.00173304,0.00021946,-0.000346
 89,0.00004831,0.00039829,0.00005114,-0.00016063,-0.00005692,-0.0007104
 6,0.00012932,-0.00032525,0.00068446,0.00018291,-0.00000106,0.00007864,
 0.00006273,-0.00003875,-0.00000133,0.00000424,0.00000062,0.00024705,0.
 00009258,0.00017697,-0.00005814,0.00019333,0.00005997,-0.00003304,-0.0
 0000182,-0.00002296,-0.00005529,0.00002721,-0.00003769,0.00001266,-0.0
 0001868,0.00001397,-0.08726837,0.00380425,-0.09812196,0.01076314,-0.00
 120562,0.02277859,0.09291664,0.00002172,-0.00001073,-0.00003895,-0.000
 01709,-0.00000626,-0.00001527,-0.00001616,-0.00000282,-0.00000165,-0.0
 0001196,0.00001986,0.00001522,0.00003975,-0.00001740,-0.00000638,-0.00
 003415,0.00007981,0.00001023,-0.00000302,0.00000202,0.00000213,-0.0000
 1828,0.00000830,0.00000770,-0.00000121,-0.00000421,-0.00000021,-0.0000
 2359,-0.00001867,0.00002399,0.00129065,-0.00503291,-0.00033173,0.01171
 426,-0.00139752,0.02805457,0.00101051,0.00164626,0.00089138,0.00011284
 ,0.00006098,0.00006302,-0.00011257,-0.00019958,-0.00004536,0.00135678,
 0.00072001,0.00036995,-0.00053078,-0.00044786,-0.00059941,-0.00003100,
 0.00000299,-0.00006852,0.00000004,0.00000293,0.00000220,0.00001964,-0.
 00002757,0.00033919,0.00000846,-0.00035700,-0.00001064,0.00000975,0.00
 000089,-0.00001491,0.00007729,-0.00001977,0.00007370,-0.00001788,0.000
 02081,-0.00000137,0.00284367,-0.04843559,0.01026342,-0.00199620,-0.000
 72359,-0.00314342,-0.00799527,0.05223293,-0.00002177,0.00005299,0.0000
 4646,0.00000769,-0.00000863,0.00000740,0.00001050,0.00002185,0.0000136
 6,0.00001446,-0.00000963,-0.00000833,0.00000850,0.00002563,0.00002634,
 0.,-0.00004654,-0.00008244,0.00000293,0.00000158,0.00000084,0.00001368
 ,-0.00001366,-0.00000983,0.00000751,0.00001160,0.00000295,-0.00000079,
 0.00001604,-0.00001759,-0.00027966,0.00128907,0.00029992,-0.00086550,-
 0.00067023,-0.00281701,0.00034785,-0.00185891,0.00066162,-0.00048807,0
 .00040409,0.00018343,0.00034627,0.00028788,0.00044093,-0.00005358,-0.0
 0094985,0.00002187,0.00042770,0.00055059,0.00014581,0.00008966,0.00004
 854,-0.00003986,-0.00000044,0.00000472,0.00000158,0.00023799,-0.000023
 04,0.00004626,0.00004977,0.00010223,-0.00002882,0.00000065,0.00000099,
 0.00001343,-0.00002547,0.00002119,-0.00002564,0.00000432,-0.00000390,0
 .00001101,-0.09977806,0.01317225,-0.27717178,-0.00884777,0.00063150,-0
 .01914312,0.10872069,-0.01286210,0.29893401,-0.00001856,0.00000461,0.0
 0001307,0.00001705,-0.00000178,0.00000163,0.00000377,-0.00000242,-0.00
 000118,-0.00001184,-0.00000211,0.00000685,0.00001965,0.00005593,0.0000
 3731,-0.00015220,0.00006695,-0.00002887,0.00000158,-0.00000225,-0.0000
 0208,0.00000900,0.00000151,-0.00000252,0.00000043,0.00000530,0.0000010
 8,0.00001015,0.00001423,-0.00000347,0.00039886,0.00103074,0.00016096,0
 .01093250,0.01366577,0.00201955,-0.00104309,0.00149573,-0.00082529,-0.
 00038818,0.00085368,0.00039487,0.00035601,0.00031963,0.00031773,0.0004
 0971,-0.00048757,0.00000293,0.00010724,0.00020355,0.00004551,-0.000049
 07,-0.00003024,0.00005881,0.00000261,0.00000236,0.00000118,-0.00004830
 ,-0.00034125,0.00012363,-0.00001406,-0.00006899,0.00000081,0.00000377,
 0.00000957,0.00000238,0.00002351,-0.00000190,0.00001632,-0.00000425,0.
 00000568,0.00000683,-0.16454585,-0.13567160,-0.02179363,-0.01566281,-0
 .01732652,-0.00378972,-0.00806417,-0.00769619,0.00007095,0.17770654,-0
 .00002624,-0.00002825,-0.00000587,0.00000921,0.00000716,-0.00000691,-0
 .00000256,-0.00002288,-0.00001407,0.00002142,-0.00000379,-0.00003925,-
 0.00007895,-0.00010202,-0.00006073,0.00029325,-0.00015038,0.00017963,-
 0.00000231,-0.00001006,-0.00000018,-0.00000419,-0.00000230,0.00002335,
 -0.00000988,-0.00000909,-0.00000465,0.00002651,0.00000023,0.00000625,-
 0.00127383,0.00176961,-0.00206294,-0.01863152,-0.02245974,-0.00432805,
 0.00287161,-0.00376365,0.00227937,-0.00019719,-0.00023463,-0.00146342,
 0.00019750,0.00013257,0.00038556,0.00050770,-0.00037408,-0.00045999,-0
 .00017195,0.00000904,0.00030141,-0.00000869,0.00001441,0.00013286,0.00
 000007,-0.00001832,-0.00000952,0.00025545,0.00025377,0.00113110,-0.000
 01776,0.00002138,-0.00000655,0.00002758,-0.00000173,0.00000842,-0.0000
 0869,0.00001311,-0.00000404,0.00001231,-0.00000210,0.00005263,-0.13304
 464,-0.19602029,-0.02103992,0.00299928,0.00342473,0.00117489,0.0023589
 4,0.00190371,-0.00019625,0.14389758,0.21565361,-0.00001523,-0.00000507
 ,0.00000900,0.00000574,0.00000262,0.00000891,0.00000390,-0.00000249,-0
 .00000316,0.00000904,-0.00001140,0.00000611,-0.00002197,0.00000354,-0.
 00001065,0.00002486,0.00001643,-0.00002793,0.00000157,0.00000031,-0.00
 000201,0.00001192,-0.00000044,-0.00000479,0.00000054,0.00000213,-0.000
 00012,0.00000720,0.00000906,-0.00001756,-0.00005840,0.00102291,0.00055
 689,0.00379890,0.00175724,-0.00104518,-0.00063350,0.00006444,0.0002205
 9,0.00018943,-0.00034260,0.00031336,-0.00015922,0.00018270,-0.00015098
 ,0.00039993,-0.00008170,-0.00016631,0.00016640,0.00021100,0.00028886,-
 0.00005775,-0.00006013,0.00007728,-0.00000007,-0.00000310,-0.00000047,
 -0.00043575,-0.00001523,0.00000516,0.00000879,-0.00001614,0.00001691,0
 .00001548,-0.00000601,0.00001431,0.00001854,-0.00001105,0.00000787,-0.
 00000827,0.00000121,-0.00002328,-0.02173809,-0.02121841,-0.05056206,0.
 01471167,0.01745009,0.00277477,-0.01941000,-0.02297681,-0.00151310,0.0
 2316434,0.02402687,0.04922758\\-0.00000498,0.00000241,-0.00000399,-0.0
 0000337,0.00000587,0.00000477,-0.00000189,-0.00000495,-0.00000322,0.00
 000705,0.00000387,0.00000150,0.00000395,-0.00000479,0.00000253,0.00000
 483,0.00001257,0.00000785,-0.00000038,-0.00000095,-0.00000060,0.000001
 73,-0.00000036,-0.00000590,-0.00000154,-0.00000158,0.00000275,-0.00000
 339,-0.00000414,0.00000304,0.00000309,0.00000756,0.00000507,0.00001371
 ,0.00000912,-0.00001313,-0.00000367,-0.00001168,-0.00000549,-0.0000033
 1,-0.00000922,-0.00000550,-0.00000458,-0.00000978,-0.00000853,-0.00001
 096,-0.00000105,0.00001800,-0.00000507,0.00000060,0.00000283,0.0000053
 8,0.00000008,-0.00000238,0.00000137,0.00000109,-0.00000305,0.00000046,
 0.00000132,0.00000080,0.00000539,0.00000332,-0.00000723,0.00001271,0.0
 0000272,-0.00000370,-0.00000292,0.00000764,-0.00000208,-0.00000093,-0.
 00000594,-0.00000269,-0.00000497,-0.00000234,0.00000792,-0.00001022,0.
 00000390,0.00000791,0.00000544,-0.00000091,0.00000640,-0.00000292,-0.0
 0000439,-0.00000391\\\@
 The archive entry for this job was punched.


 "ANNA, YOU MUSN'T SPEAK OF OXIDIZED MURIATIC ACID
 ANYMORE, FROM NOW ON YOU MUST SAY CHLORINE."
   -- JENS JACOB BERZELIUS, IN 1820, TO HIS COOK, WHO HAD
 COMPLAINED OF THE SMELL OF THE FLASK SHE WAS CLEANING.
 Job cpu time:       1 days  0 hours 40 minutes 34.1 seconds.
 Elapsed time:       0 days  0 hours 47 minutes  2.5 seconds.
 File lengths (MBytes):  RWF=    624 Int=      0 D2E=      0 Chk=     23 Scr=      1
 Normal termination of Gaussian 16 at Tue Nov 14 03:15:50 2023.
