 Entering Gaussian System, Link 0=g16
 Input=ph_35et_5_1_m062x.com
 Output=ph_35et_5_1_m062x.log
 Initial command:
 /arc/software/Gaussian/g16.c01/l1.exe "/tmp/slurm/41185/Gau-125218.inp" -scrdir="/tmp/slurm/41185/"
 Entering Link 1 = /arc/software/Gaussian/g16.c01/l1.exe PID=    125219.
  
 Copyright (c) 1988-2019, Gaussian, Inc.  All Rights Reserved.
  
 This is part of the Gaussian(R) 16 program.  It is based on
 the Gaussian(R) 09 system (copyright 2009, Gaussian, Inc.),
 the Gaussian(R) 03 system (copyright 2003, Gaussian, Inc.),
 the Gaussian(R) 98 system (copyright 1998, Gaussian, Inc.),
 the Gaussian(R) 94 system (copyright 1995, Gaussian, Inc.),
 the Gaussian 92(TM) system (copyright 1992, Gaussian, Inc.),
 the Gaussian 90(TM) system (copyright 1990, Gaussian, Inc.),
 the Gaussian 88(TM) system (copyright 1988, Gaussian, Inc.),
 the Gaussian 86(TM) system (copyright 1986, Carnegie Mellon
 University), and the Gaussian 82(TM) system (copyright 1983,
 Carnegie Mellon University). Gaussian is a federally registered
 trademark of Gaussian, Inc.
  
 This software contains proprietary and confidential information,
 including trade secrets, belonging to Gaussian, Inc.
  
 This software is provided under written license and may be
 used, copied, transmitted, or stored only in accord with that
 written license.
  
 The following legend is applicable only to US Government
 contracts under FAR:
  
                    RESTRICTED RIGHTS LEGEND
  
 Use, reproduction and disclosure by the US Government is
 subject to restrictions as set forth in subparagraphs (a)
 and (c) of the Commercial Computer Software - Restricted
 Rights clause in FAR 52.227-19.
  
 Gaussian, Inc.
 340 Quinnipiac St., Bldg. 40, Wallingford CT 06492
  
  
 ---------------------------------------------------------------
 Warning -- This program may not be used in any manner that
 competes with the business of Gaussian, Inc. or will provide
 assistance to any competitor of Gaussian, Inc.  The licensee
 of this program is prohibited from giving any competitor of
 Gaussian, Inc. access to this program.  By using this program,
 the user acknowledges that Gaussian, Inc. is engaged in the
 business of creating and licensing software in the field of
 computational chemistry and represents and warrants to the
 licensee that it is not a competitor of Gaussian, Inc. and that
 it will not use this program in any manner prohibited above.
 ---------------------------------------------------------------
  

 Cite this work as:
 Gaussian 16, Revision C.01,
 M. J. Frisch, G. W. Trucks, H. B. Schlegel, G. E. Scuseria, 
 M. A. Robb, J. R. Cheeseman, G. Scalmani, V. Barone, 
 G. A. Petersson, H. Nakatsuji, X. Li, M. Caricato, A. V. Marenich, 
 J. Bloino, B. G. Janesko, R. Gomperts, B. Mennucci, H. P. Hratchian, 
 J. V. Ortiz, A. F. Izmaylov, J. L. Sonnenberg, D. Williams-Young, 
 F. Ding, F. Lipparini, F. Egidi, J. Goings, B. Peng, A. Petrone, 
 T. Henderson, D. Ranasinghe, V. G. Zakrzewski, J. Gao, N. Rega, 
 G. Zheng, W. Liang, M. Hada, M. Ehara, K. Toyota, R. Fukuda, 
 J. Hasegawa, M. Ishida, T. Nakajima, Y. Honda, O. Kitao, H. Nakai, 
 T. Vreven, K. Throssell, J. A. Montgomery, Jr., J. E. Peralta, 
 F. Ogliaro, M. J. Bearpark, J. J. Heyd, E. N. Brothers, K. N. Kudin, 
 V. N. Staroverov, T. A. Keith, R. Kobayashi, J. Normand, 
 K. Raghavachari, A. P. Rendell, J. C. Burant, S. S. Iyengar, 
 J. Tomasi, M. Cossi, J. M. Millam, M. Klene, C. Adamo, R. Cammi, 
 J. W. Ochterski, R. L. Martin, K. Morokuma, O. Farkas, 
 J. B. Foresman, and D. J. Fox, Gaussian, Inc., Wallingford CT, 2019.
 
 ******************************************
 Gaussian 16:  ES64L-G16RevC.01  3-Jul-2019
                 8-Nov-2023 
 ******************************************
 %nprocshared=32
 Will use up to   32 processors via shared memory.
 %mem=8000MB
 %chk=ph_35et_5_1_m062x.chk
 -----------------------------------------
 # opt freq=noraman m062x def2tzvp pop=nbo
 -----------------------------------------
 1/18=20,19=15,26=3,38=1/1,3;
 2/9=110,12=2,17=6,18=5,40=1/2;
 3/5=44,7=101,11=2,25=1,30=1,71=1,74=-55/1,2,3;
 4//1;
 5/5=2,38=5/2;
 6/7=2,8=2,9=2,10=2,28=1,40=1/1,7;
 7//1,2,3,16;
 1/18=20,19=15,26=3/3(2);
 2/9=110/2;
 99//99;
 2/9=110/2;
 3/5=44,7=101,11=2,25=1,30=1,71=1,74=-55/1,2,3;
 4/5=5,16=3,69=1/1;
 5/5=2,38=5/2;
 7//1,2,3,16;
 1/18=20,19=15,26=3/3(-5);
 2/9=110/2;
 6/7=2,8=2,9=2,10=2,19=2,28=1,40=1/1,7;
 99/9=1/99;
 ------------
 Structure697
 ------------
 Symbolic Z-matrix:
 Charge =  0 Multiplicity = 1
 C                    -4.6785   -0.6692    2.3357 
 C                    -3.3639   -0.3139    2.628 
 C                    -2.3426   -1.242     2.4454 
 C                    -2.627    -2.5201    1.9727 
 C                    -3.9432   -2.8698    1.6805 
 C                    -4.9859   -1.9504    1.8581 
 H                    -1.3221   -0.9685    2.6721 
 H                    -4.1542   -3.8684    1.3272 
 H                    -3.1385    0.6782    2.9916 
 H                    -5.4613    0.063     2.4682 
 C                    -9.0523   -3.0402    0.9547 
 C                    -8.7793   -2.2291    2.0575 
 C                    -7.4568   -1.881     2.3448 
 C                    -6.3959   -2.3283    1.5449 
 C                    -6.6966   -3.1405    0.4424 
 C                    -8.0135   -3.4998    0.1434 
 H                    -7.2512   -1.2684    3.2099 
 H                    -5.8997   -3.4845   -0.2 
 H                    -1.832    -3.2387    1.8358 
 H                    -10.0724  -3.3136    0.7281 
 C                    -9.9113   -1.7352    2.944 
 H                    -9.6629   -0.7433    3.3252 
 H                    -10.8075  -1.5919    2.338 
 C                    -8.3134   -4.3775   -1.0612 
 H                    -7.4933   -5.0829   -1.2052 
 H                    -9.1874   -4.9954   -0.8484 
 C                    -10.2056  -2.6924    4.1082 
 H                    -10.4939  -3.6797    3.745 
 H                    -11.0195  -2.3168    4.7288 
 H                    -9.3311   -2.8172    4.7481 
 C                    -8.5406   -3.5599   -2.3412 
 H                    -7.6613   -2.9649   -2.5915 
 H                    -8.753    -4.2106   -3.1898 
 H                    -9.3826   -2.8757   -2.229 
 

 GradGradGradGradGradGradGradGradGradGradGradGradGradGradGradGradGradGrad
 Berny optimization.
 Initialization pass.
                           ----------------------------
                           !    Initial Parameters    !
                           ! (Angstroms and Degrees)  !
 --------------------------                            --------------------------
 ! Name  Definition              Value          Derivative Info.                !
 --------------------------------------------------------------------------------
 ! R1    R(1,2)                  1.3928         estimate D2E/DX2                !
 ! R2    R(1,6)                  1.4015         estimate D2E/DX2                !
 ! R3    R(1,10)                 1.08           estimate D2E/DX2                !
 ! R4    R(2,3)                  1.392          estimate D2E/DX2                !
 ! R5    R(2,9)                  1.0804         estimate D2E/DX2                !
 ! R6    R(3,4)                  1.3921         estimate D2E/DX2                !
 ! R7    R(3,7)                  1.0806         estimate D2E/DX2                !
 ! R8    R(4,5)                  1.3929         estimate D2E/DX2                !
 ! R9    R(4,19)                 1.0803         estimate D2E/DX2                !
 ! R10   R(5,6)                  1.4014         estimate D2E/DX2                !
 ! R11   R(5,8)                  1.0801         estimate D2E/DX2                !
 ! R12   R(6,14)                 1.493          estimate D2E/DX2                !
 ! R13   R(11,12)                1.3959         estimate D2E/DX2                !
 ! R14   R(11,16)                1.3959         estimate D2E/DX2                !
 ! R15   R(11,20)                1.0801         estimate D2E/DX2                !
 ! R16   R(12,13)                1.3974         estimate D2E/DX2                !
 ! R17   R(12,21)                1.5203         estimate D2E/DX2                !
 ! R18   R(13,14)                1.4019         estimate D2E/DX2                !
 ! R19   R(13,17)                1.0798         estimate D2E/DX2                !
 ! R20   R(14,15)                1.402          estimate D2E/DX2                !
 ! R21   R(15,16)                1.3974         estimate D2E/DX2                !
 ! R22   R(15,18)                1.0798         estimate D2E/DX2                !
 ! R23   R(16,24)                1.5203         estimate D2E/DX2                !
 ! R24   R(21,22)                1.0913         estimate D2E/DX2                !
 ! R25   R(21,23)                1.0913         estimate D2E/DX2                !
 ! R26   R(21,27)                1.5356         estimate D2E/DX2                !
 ! R27   R(24,25)                1.0913         estimate D2E/DX2                !
 ! R28   R(24,26)                1.0913         estimate D2E/DX2                !
 ! R29   R(24,31)                1.5357         estimate D2E/DX2                !
 ! R30   R(27,28)                1.0908         estimate D2E/DX2                !
 ! R31   R(27,29)                1.0903         estimate D2E/DX2                !
 ! R32   R(27,30)                1.0908         estimate D2E/DX2                !
 ! R33   R(31,32)                1.0908         estimate D2E/DX2                !
 ! R34   R(31,33)                1.0903         estimate D2E/DX2                !
 ! R35   R(31,34)                1.0907         estimate D2E/DX2                !
 ! A1    A(2,1,6)              120.7813         estimate D2E/DX2                !
 ! A2    A(2,1,10)             119.04           estimate D2E/DX2                !
 ! A3    A(6,1,10)             120.1725         estimate D2E/DX2                !
 ! A4    A(1,2,3)              119.6617         estimate D2E/DX2                !
 ! A5    A(1,2,9)              120.1187         estimate D2E/DX2                !
 ! A6    A(3,2,9)              120.2193         estimate D2E/DX2                !
 ! A7    A(2,3,4)              120.4501         estimate D2E/DX2                !
 ! A8    A(2,3,7)              119.7766         estimate D2E/DX2                !
 ! A9    A(4,3,7)              119.7733         estimate D2E/DX2                !
 ! A10   A(3,4,5)              119.6567         estimate D2E/DX2                !
 ! A11   A(3,4,19)             120.2244         estimate D2E/DX2                !
 ! A12   A(5,4,19)             120.1186         estimate D2E/DX2                !
 ! A13   A(4,5,6)              120.7821         estimate D2E/DX2                !
 ! A14   A(4,5,8)              119.0359         estimate D2E/DX2                !
 ! A15   A(6,5,8)              120.1758         estimate D2E/DX2                !
 ! A16   A(1,6,5)              118.6681         estimate D2E/DX2                !
 ! A17   A(1,6,14)             120.6666         estimate D2E/DX2                !
 ! A18   A(5,6,14)             120.6653         estimate D2E/DX2                !
 ! A19   A(12,11,16)           120.3268         estimate D2E/DX2                !
 ! A20   A(12,11,20)           119.8354         estimate D2E/DX2                !
 ! A21   A(16,11,20)           119.8378         estimate D2E/DX2                !
 ! A22   A(11,12,13)           119.489          estimate D2E/DX2                !
 ! A23   A(11,12,21)           120.2531         estimate D2E/DX2                !
 ! A24   A(13,12,21)           120.2568         estimate D2E/DX2                !
 ! A25   A(12,13,14)           121.2915         estimate D2E/DX2                !
 ! A26   A(12,13,17)           119.0941         estimate D2E/DX2                !
 ! A27   A(14,13,17)           119.607          estimate D2E/DX2                !
 ! A28   A(6,14,13)            120.9456         estimate D2E/DX2                !
 ! A29   A(6,14,15)            120.9414         estimate D2E/DX2                !
 ! A30   A(13,14,15)           118.1131         estimate D2E/DX2                !
 ! A31   A(14,15,16)           121.2879         estimate D2E/DX2                !
 ! A32   A(14,15,18)           119.6095         estimate D2E/DX2                !
 ! A33   A(16,15,18)           119.0954         estimate D2E/DX2                !
 ! A34   A(11,16,15)           119.4914         estimate D2E/DX2                !
 ! A35   A(11,16,24)           120.251          estimate D2E/DX2                !
 ! A36   A(15,16,24)           120.2566         estimate D2E/DX2                !
 ! A37   A(12,21,22)           109.2381         estimate D2E/DX2                !
 ! A38   A(12,21,23)           109.2892         estimate D2E/DX2                !
 ! A39   A(12,21,27)           112.4744         estimate D2E/DX2                !
 ! A40   A(22,21,23)           105.1621         estimate D2E/DX2                !
 ! A41   A(22,21,27)           110.2038         estimate D2E/DX2                !
 ! A42   A(23,21,27)           110.2091         estimate D2E/DX2                !
 ! A43   A(16,24,25)           109.2375         estimate D2E/DX2                !
 ! A44   A(16,24,26)           109.2903         estimate D2E/DX2                !
 ! A45   A(16,24,31)           112.4715         estimate D2E/DX2                !
 ! A46   A(25,24,26)           105.1649         estimate D2E/DX2                !
 ! A47   A(25,24,31)           110.2018         estimate D2E/DX2                !
 ! A48   A(26,24,31)           110.2108         estimate D2E/DX2                !
 ! A49   A(21,27,28)           111.2483         estimate D2E/DX2                !
 ! A50   A(21,27,29)           111.0922         estimate D2E/DX2                !
 ! A51   A(21,27,30)           111.2487         estimate D2E/DX2                !
 ! A52   A(28,27,29)           107.7011         estimate D2E/DX2                !
 ! A53   A(28,27,30)           107.6787         estimate D2E/DX2                !
 ! A54   A(29,27,30)           107.6972         estimate D2E/DX2                !
 ! A55   A(24,31,32)           111.2474         estimate D2E/DX2                !
 ! A56   A(24,31,33)           111.0889         estimate D2E/DX2                !
 ! A57   A(24,31,34)           111.2493         estimate D2E/DX2                !
 ! A58   A(32,31,33)           107.6978         estimate D2E/DX2                !
 ! A59   A(32,31,34)           107.6812         estimate D2E/DX2                !
 ! A60   A(33,31,34)           107.7018         estimate D2E/DX2                !
 ! D1    D(6,1,2,3)             -0.072          estimate D2E/DX2                !
 ! D2    D(6,1,2,9)            179.7358         estimate D2E/DX2                !
 ! D3    D(10,1,2,3)          -179.1706         estimate D2E/DX2                !
 ! D4    D(10,1,2,9)             0.6372         estimate D2E/DX2                !
 ! D5    D(2,1,6,5)              0.0378         estimate D2E/DX2                !
 ! D6    D(2,1,6,14)          -179.9675         estimate D2E/DX2                !
 ! D7    D(10,1,6,5)           179.1262         estimate D2E/DX2                !
 ! D8    D(10,1,6,14)           -0.8791         estimate D2E/DX2                !
 ! D9    D(1,2,3,4)              0.0343         estimate D2E/DX2                !
 ! D10   D(1,2,3,7)           -179.9667         estimate D2E/DX2                !
 ! D11   D(9,2,3,4)           -179.7734         estimate D2E/DX2                !
 ! D12   D(9,2,3,7)              0.2257         estimate D2E/DX2                !
 ! D13   D(2,3,4,5)              0.0368         estimate D2E/DX2                !
 ! D14   D(2,3,4,19)          -179.7736         estimate D2E/DX2                !
 ! D15   D(7,3,4,5)           -179.9622         estimate D2E/DX2                !
 ! D16   D(7,3,4,19)             0.2274         estimate D2E/DX2                !
 ! D17   D(3,4,5,6)             -0.0715         estimate D2E/DX2                !
 ! D18   D(3,4,5,8)           -179.1705         estimate D2E/DX2                !
 ! D19   D(19,4,5,6)           179.7391         estimate D2E/DX2                !
 ! D20   D(19,4,5,8)             0.6401         estimate D2E/DX2                !
 ! D21   D(4,5,6,1)              0.0343         estimate D2E/DX2                !
 ! D22   D(4,5,6,14)          -179.9604         estimate D2E/DX2                !
 ! D23   D(8,5,6,1)            179.123          estimate D2E/DX2                !
 ! D24   D(8,5,6,14)            -0.8717         estimate D2E/DX2                !
 ! D25   D(1,6,14,13)          -37.8625         estimate D2E/DX2                !
 ! D26   D(1,6,14,15)          142.1323         estimate D2E/DX2                !
 ! D27   D(5,6,14,13)          142.1321         estimate D2E/DX2                !
 ! D28   D(5,6,14,15)          -37.8731         estimate D2E/DX2                !
 ! D29   D(16,11,12,13)         -0.0616         estimate D2E/DX2                !
 ! D30   D(16,11,12,21)       -179.6935         estimate D2E/DX2                !
 ! D31   D(20,11,12,13)        179.9325         estimate D2E/DX2                !
 ! D32   D(20,11,12,21)          0.3006         estimate D2E/DX2                !
 ! D33   D(12,11,16,15)         -0.0737         estimate D2E/DX2                !
 ! D34   D(12,11,16,24)       -179.7            estimate D2E/DX2                !
 ! D35   D(20,11,16,15)        179.9322         estimate D2E/DX2                !
 ! D36   D(20,11,16,24)          0.3059         estimate D2E/DX2                !
 ! D37   D(11,12,13,14)          0.1323         estimate D2E/DX2                !
 ! D38   D(11,12,13,17)       -178.8777         estimate D2E/DX2                !
 ! D39   D(21,12,13,14)        179.7641         estimate D2E/DX2                !
 ! D40   D(21,12,13,17)          0.7542         estimate D2E/DX2                !
 ! D41   D(11,12,21,22)       -146.8226         estimate D2E/DX2                !
 ! D42   D(11,12,21,23)        -32.2634         estimate D2E/DX2                !
 ! D43   D(11,12,21,27)         90.4788         estimate D2E/DX2                !
 ! D44   D(13,12,21,22)         33.5484         estimate D2E/DX2                !
 ! D45   D(13,12,21,23)        148.1076         estimate D2E/DX2                !
 ! D46   D(13,12,21,27)        -89.1503         estimate D2E/DX2                !
 ! D47   D(12,13,14,6)         179.9305         estimate D2E/DX2                !
 ! D48   D(12,13,14,15)         -0.0645         estimate D2E/DX2                !
 ! D49   D(17,13,14,6)          -1.0646         estimate D2E/DX2                !
 ! D50   D(17,13,14,15)        178.9405         estimate D2E/DX2                !
 ! D51   D(6,14,15,16)         179.9307         estimate D2E/DX2                !
 ! D52   D(6,14,15,18)          -1.0545         estimate D2E/DX2                !
 ! D53   D(13,14,15,16)         -0.0743         estimate D2E/DX2                !
 ! D54   D(13,14,15,18)        178.9404         estimate D2E/DX2                !
 ! D55   D(14,15,16,11)          0.1433         estimate D2E/DX2                !
 ! D56   D(14,15,16,24)        179.7696         estimate D2E/DX2                !
 ! D57   D(18,15,16,11)       -178.8763         estimate D2E/DX2                !
 ! D58   D(18,15,16,24)          0.7499         estimate D2E/DX2                !
 ! D59   D(11,16,24,25)       -146.8414         estimate D2E/DX2                !
 ! D60   D(11,16,24,26)        -32.2784         estimate D2E/DX2                !
 ! D61   D(11,16,24,31)         90.4648         estimate D2E/DX2                !
 ! D62   D(15,16,24,25)         33.5353         estimate D2E/DX2                !
 ! D63   D(15,16,24,26)        148.0982         estimate D2E/DX2                !
 ! D64   D(15,16,24,31)        -89.1586         estimate D2E/DX2                !
 ! D65   D(12,21,27,28)        -60.0509         estimate D2E/DX2                !
 ! D66   D(12,21,27,29)        179.9732         estimate D2E/DX2                !
 ! D67   D(12,21,27,30)         60.0019         estimate D2E/DX2                !
 ! D68   D(22,21,27,28)        177.7953         estimate D2E/DX2                !
 ! D69   D(22,21,27,29)         57.8194         estimate D2E/DX2                !
 ! D70   D(22,21,27,30)        -62.1518         estimate D2E/DX2                !
 ! D71   D(23,21,27,28)         62.1724         estimate D2E/DX2                !
 ! D72   D(23,21,27,29)        -57.8035         estimate D2E/DX2                !
 ! D73   D(23,21,27,30)       -177.7748         estimate D2E/DX2                !
 ! D74   D(16,24,31,32)         60.0002         estimate D2E/DX2                !
 ! D75   D(16,24,31,33)        179.9691         estimate D2E/DX2                !
 ! D76   D(16,24,31,34)        -60.0557         estimate D2E/DX2                !
 ! D77   D(25,24,31,32)        -62.1495         estimate D2E/DX2                !
 ! D78   D(25,24,31,33)         57.8194         estimate D2E/DX2                !
 ! D79   D(25,24,31,34)        177.7947         estimate D2E/DX2                !
 ! D80   D(26,24,31,32)       -177.7758         estimate D2E/DX2                !
 ! D81   D(26,24,31,33)        -57.8069         estimate D2E/DX2                !
 ! D82   D(26,24,31,34)         62.1684         estimate D2E/DX2                !
 --------------------------------------------------------------------------------
 Trust Radius=3.00D-01 FncErr=1.00D-07 GrdErr=1.00D-06 EigMax=2.50D+02 EigMin=1.00D-04
 Number of steps in this run=    187 maximum allowed number of steps=    204.
 GradGradGradGradGradGradGradGradGradGradGradGradGradGradGradGradGradGrad

                          Input orientation:                          
 ---------------------------------------------------------------------
 Center     Atomic      Atomic             Coordinates (Angstroms)
 Number     Number       Type             X           Y           Z
 ---------------------------------------------------------------------
      1          6           0       -4.678500   -0.669200    2.335700
      2          6           0       -3.363900   -0.313900    2.628000
      3          6           0       -2.342600   -1.242000    2.445400
      4          6           0       -2.627000   -2.520100    1.972700
      5          6           0       -3.943200   -2.869800    1.680500
      6          6           0       -4.985900   -1.950400    1.858100
      7          1           0       -1.322100   -0.968500    2.672100
      8          1           0       -4.154200   -3.868400    1.327200
      9          1           0       -3.138500    0.678200    2.991600
     10          1           0       -5.461300    0.063000    2.468200
     11          6           0       -9.052300   -3.040200    0.954700
     12          6           0       -8.779300   -2.229100    2.057500
     13          6           0       -7.456800   -1.881000    2.344800
     14          6           0       -6.395900   -2.328300    1.544900
     15          6           0       -6.696600   -3.140500    0.442400
     16          6           0       -8.013500   -3.499800    0.143400
     17          1           0       -7.251200   -1.268400    3.209900
     18          1           0       -5.899700   -3.484500   -0.200000
     19          1           0       -1.832000   -3.238700    1.835800
     20          1           0      -10.072400   -3.313600    0.728100
     21          6           0       -9.911300   -1.735200    2.944000
     22          1           0       -9.662900   -0.743300    3.325200
     23          1           0      -10.807500   -1.591900    2.338000
     24          6           0       -8.313400   -4.377500   -1.061200
     25          1           0       -7.493300   -5.082900   -1.205200
     26          1           0       -9.187400   -4.995400   -0.848400
     27          6           0      -10.205600   -2.692400    4.108200
     28          1           0      -10.493900   -3.679700    3.745000
     29          1           0      -11.019500   -2.316800    4.728800
     30          1           0       -9.331100   -2.817200    4.748100
     31          6           0       -8.540600   -3.559900   -2.341200
     32          1           0       -7.661300   -2.964900   -2.591500
     33          1           0       -8.753000   -4.210600   -3.189800
     34          1           0       -9.382600   -2.875700   -2.229000
 ---------------------------------------------------------------------
                    Distance matrix (angstroms):
                    1          2          3          4          5
     1  C    0.000000
     2  C    1.392785   0.000000
     3  C    2.407605   1.392037   0.000000
     4  C    2.786800   2.416559   1.392073   0.000000
     5  C    2.410932   2.786749   2.407639   1.392858   0.000000
     6  C    1.401453   2.429354   2.798890   2.429424   1.401450
     7  H    3.386468   2.144620   1.080563   2.144618   3.386499
     8  H    3.395121   3.866668   3.380864   2.137036   1.080067
     9  H    2.148788   1.080404   2.149176   3.395425   3.867147
    10  H    1.080023   2.136978   3.380804   3.866676   3.395057
    11  C    5.163228   6.526143   7.104631   6.526202   5.163209
    12  C    4.396276   5.772349   6.523491   6.159762   4.892902
    13  C    3.031088   4.391792   5.154947   4.886090   3.710041
    14  C    2.515440   3.797886   4.291875   3.797948   2.515422
    15  C    3.710072   4.886042   5.154961   4.391851   3.031069
    16  C    4.892924   6.159706   6.523494   5.772394   4.396239
    17  H    2.782454   4.044846   4.967848   4.947792   3.980755
    18  H    3.980831   4.947784   4.967888   4.044905   2.782450
    19  H    3.867143   3.395402   2.149217   1.080348   2.148807
    20  H    6.218632   7.590243   8.184770   7.590300   6.218611
    21  C    5.374810   6.707339   7.601123   7.390570   6.204995
    22  H    5.082209   6.351998   7.389827   7.381745   6.319969
    23  H    6.198066   7.558079   8.472809   8.241091   7.013127
    24  C    6.205072   7.390575   7.601188   6.707431   5.374823
    25  H    6.319954   7.381648   7.389797   6.351997   5.082154
    26  H    7.013179   8.241053   8.472805   7.558079   6.197995
    27  C    6.146863   7.393045   8.166721   7.875610   6.718843
    28  H    6.698367   7.963240   8.606685   8.147014   6.915907
    29  H    6.974940   8.187379   9.036465   8.835806   7.724763
    30  H    5.663944   6.809465   7.524813   7.261961   6.200194
    31  C    6.719029   7.875766   8.166970   7.393347   6.147064
    32  H    6.200374   7.262137   7.525112   6.809842   5.664212
    33  H    7.724909   8.835919   9.036664   8.187617   6.975080
    34  H    6.916190   8.147271   8.607008   7.963596   6.698604
                    6          7          8          9         10
     6  C    0.000000
     7  H    3.879453   0.000000
     8  H    2.156920   4.270710   0.000000
     9  H    3.406941   2.472450   4.947064   0.000000
    10  H    2.156851   4.270661   4.297243   2.459231   0.000000
    11  C    4.305741   8.185194   4.981572   7.276571   4.981547
    12  C    3.808847   7.587930   4.961068   6.414325   4.053581
    13  C    2.519333   6.210823   3.986532   5.061183   2.788617
    14  C    1.492984   5.372437   2.728465   4.662900   2.728420
    15  C    2.519333   6.210829   2.788639   5.808697   3.986508
    16  C    3.808832   7.587927   4.053572   7.023785   4.961045
    17  H    2.724715   5.960989   4.460490   4.555349   2.350848
    18  H    2.724751   5.961010   2.350849   5.927783   4.460520
    19  H    3.406949   2.472489   2.459229   4.287764   4.947016
    20  H    5.385879   9.265332   5.974263   8.314858   5.974246
    21  C    5.048272   8.627637   6.348920   7.190103   4.823112
    22  H    5.048148   8.369361   6.641086   6.685787   4.363257
    23  H    5.852337   9.511733   7.104264   8.024594   5.597991
    24  C    5.048305   8.627693   4.823130   8.292459   6.348951
    25  H    5.048110   8.369316   4.363215   8.352705   6.641022
    26  H    5.852330   9.511718   5.597898   9.139175   7.104299
    27  C    5.732258   9.162466   6.762868   7.908960   5.726274
    28  H    6.073626   9.624117   6.787721   8.582588   6.400397
    29  H    6.691748  10.004374   7.817333   8.608022   6.455025
    30  H    5.290010   8.477709   6.293479   7.324712   5.335621
    31  C    5.732408   9.162711   5.726503   8.693844   6.762974
    32  H    5.290172   8.478004   5.335942   8.055986   6.293548
    33  H    6.691849  10.004567   6.455180   9.676398   7.817411
    34  H    6.073840   9.624440   6.400639   8.881084   6.787948
                   11         12         13         14         15
    11  C    0.000000
    12  C    1.395915   0.000000
    13  C    2.412829   1.397398   0.000000
    14  C    2.812756   2.439917   1.401937   0.000000
    15  C    2.412848   2.788698   2.404864   1.401997   0.000000
    16  C    1.395903   2.421757   2.788654   2.439927   1.397399
    17  H    3.386615   2.141509   1.079791   2.151081   3.386945
    18  H    3.386683   3.868389   3.387002   2.151206   1.079844
    19  H    7.276570   7.023775   5.808684   4.662900   5.061180
    20  H    1.080138   2.148384   3.392260   3.892895   3.392287
    21  C    2.529470   1.520277   2.530784   3.829789   4.308964
    22  H    3.356762   2.143692   2.668787   4.044129   4.780799
    23  H    2.663047   2.144365   3.363156   4.542412   4.784450
    24  C    2.529466   3.815622   4.308957   3.829854   2.530815
    25  H    3.356825   4.521414   4.780794   4.044151   2.668751
    26  H    2.663124   4.032768   4.784453   4.542442   3.363169
    27  C    3.375741   2.540541   3.365093   4.606180   5.094307
    28  H    3.205144   2.809226   3.797349   4.843586   5.061363
    29  H    4.317061   3.487410   4.308852   5.613825   6.143222
    30  H    3.810163   2.808856   3.188310   4.372060   5.058079
    31  C    3.375631   4.601801   5.094303   4.606338   3.365213
    32  H    3.809998   4.837823   5.058035   4.372219   3.188421
    33  H    4.316978   5.609028   6.143205   5.613943   4.308918
    34  H    3.205012   4.376773   5.061401   4.843794   3.797511
                   16         17         18         19         20
    16  C    0.000000
    17  H    3.868290   0.000000
    18  H    2.141567   4.285449   0.000000
    19  H    6.414307   5.927728   4.555336   0.000000
    20  H    2.148398   4.278007   4.278084   8.314854   0.000000
    21  C    3.815602   2.713805   5.388666   8.292389   2.725346
    22  H    4.521356   2.470895   5.839768   8.352744   3.676828
    23  H    4.032715   3.675885   5.840366   9.139133   2.469089
    24  C    1.520315   5.388605   2.713865   7.190134   2.725355
    25  H    2.143720   5.839703   2.470804   6.685736   3.676932
    26  H    2.144418   5.840308   3.675896   8.024515   2.469216
    27  C    4.601830   3.400470   6.142376   8.693643   3.439289
    28  H    4.376788   4.076249   6.058696   8.880768   3.068123
    29  H    5.609048   4.195984   7.202010   9.676234   4.230391
    30  H    4.837900   3.015099   6.058340   8.055784   4.117808
    31  C    2.540607   6.142331   3.400702   7.909223   3.439139
    32  H    2.808886   6.058262   3.015376   7.325073   4.117613
    33  H    3.487452   7.201951   4.196123   8.608222   4.230291
    34  H    2.809309   6.058706   4.076527   8.582886   3.067902
                   21         22         23         24         25
    21  C    0.000000
    22  H    1.091275   0.000000
    23  H    1.091304   1.733434   0.000000
    24  C    5.057337   5.853979   5.053183   0.000000
    25  H    5.854031   6.638058   5.977062   1.091279   0.000000
    26  H    5.053240   5.977072   4.935755   1.091311   1.733475
    27  C    1.535645   2.169471   2.169560   5.756968   6.426763
    28  H    2.182225   3.080461   2.537105   5.323633   5.956261
    29  H    2.179880   2.507261   2.507259   6.715174   7.436246
    30  H    2.182231   2.536887   3.080536   6.100673   6.629682
    31  C    5.756882   6.426576   5.559386   1.535737   2.169530
    32  H    6.100526   6.629423   6.006969   2.182313   2.536922
    33  H    6.715115   7.436082   6.452529   2.179918   2.507267
    34  H    5.323551   5.956076   4.953380   2.182281   3.080479
                   26         27         28         29         30
    26  H    0.000000
    27  C    5.559534   0.000000
    28  H    4.953517   1.090776   0.000000
    29  H    6.452647   1.090254   1.761140   0.000000
    30  H    6.007164   1.090778   1.761312   1.761098   0.000000
    31  C    2.169669   6.717108   6.393087   7.594415   7.171797
    32  H    3.080635   7.171729   6.977521   8.079872   7.528597
    33  H    2.507343   7.594457   7.169661   8.451493   8.079976
    34  H    2.537181   6.393046   6.129444   7.169574   6.977535
                   31         32         33         34
    31  C    0.000000
    32  H    1.090800   0.000000
    33  H    1.090251   1.761119   0.000000
    34  H    1.090726   1.761317   1.761105   0.000000
 Stoichiometry    C16H18
 Framework group  C1[X(C16H18)]
 Deg. of freedom    96
 Full point group                 C1      NOp   1
 Largest Abelian subgroup         C1      NOp   1
 Largest concise Abelian subgroup C1      NOp   1
                         Standard orientation:                         
 ---------------------------------------------------------------------
 Center     Atomic      Atomic             Coordinates (Angstroms)
 Number     Number       Type             X           Y           Z
 ---------------------------------------------------------------------
      1          6           0        2.538731    0.810507   -0.892291
      2          6           0        3.931513    0.811823   -0.894852
      3          6           0        4.622815   -0.000053   -0.000019
      4          6           0        3.931543   -0.811952    0.894873
      5          6           0        2.538688   -0.810599    0.892257
      6          6           0        1.823924   -0.000054   -0.000040
      7          1           0        5.703377   -0.000084   -0.000034
      8          1           0        2.012532   -1.434193    1.599953
      9          1           0        4.471784    1.437752   -1.590260
     10          1           0        2.012574    1.434083   -1.599936
     11          6           0       -2.481817    0.000018   -0.000022
     12          6           0       -1.787298    1.192696   -0.209172
     13          6           0       -0.389927    1.184575   -0.206336
     14          6           0        0.330940    0.000007    0.000004
     15          6           0       -0.389954   -1.184625    0.206295
     16          6           0       -1.787327   -1.192648    0.209208
     17          1           0        0.140821    2.113802   -0.350533
     18          1           0        0.140782   -2.113912    0.350543
     19          1           0        4.471740   -1.437882    1.590251
     20          1           0       -3.561955    0.000056    0.000005
     21          6           0       -2.545346    2.491873   -0.429956
     22          1           0       -1.979711    3.126372   -1.114317
     23          1           0       -3.482612    2.279003   -0.946835
     24          6           0       -2.545467   -2.491805    0.430048
     25          1           0       -1.979714   -3.126429    1.114201
     26          1           0       -3.482624   -2.278910    0.947130
     27          6           0       -2.821276    3.240764    0.882001
     28          1           0       -3.419651    2.635606    1.564294
     29          1           0       -3.364643    4.167837    0.697774
     30          1           0       -1.892708    3.496780    1.393875
     31          6           0       -2.821679   -3.240575   -0.882027
     32          1           0       -1.893182   -3.496580   -1.394080
     33          1           0       -3.365029   -4.167644   -0.697748
     34          1           0       -3.420153   -2.635368   -1.564109
 ---------------------------------------------------------------------
 Rotational constants (GHZ):           0.7120294           0.3175439           0.2378246
 Standard basis: def2TZVP (5D, 7F)
 There are   684 symmetry adapted cartesian basis functions of A   symmetry.
 There are   604 symmetry adapted basis functions of A   symmetry.
   604 basis functions,   960 primitive gaussians,   684 cartesian basis functions
    57 alpha electrons       57 beta electrons
       nuclear repulsion energy       993.9406552753 Hartrees.
 NAtoms=   34 NActive=   34 NUniq=   34 SFac= 1.00D+00 NAtFMM=   60 NAOKFM=F Big=F
 Integral buffers will be    131072 words long.
 Raffenetti 2 integral format.
 Two-electron integral symmetry is turned on.
 One-electron integrals computed using PRISM.
   1 Symmetry operations used in ECPInt.
 ECPInt:  NShTT=   30876 NPrTT=   92212 LenC2=   27489 LenP2D=   59919.
 LDataN:  DoStor=T MaxTD1= 6 Len=  172
 NBasis=   604 RedAO= T EigKep=  5.94D-06  NBF=   604
 NBsUse=   604 1.00D-06 EigRej= -1.00D+00 NBFU=   604
 ExpMin= 9.52D-02 ExpMax= 1.36D+04 ExpMxC= 4.63D+02 IAcc=3 IRadAn=         5 AccDes= 0.00D+00
 Harris functional with IExCor= 1009 and IRadAn=       5 diagonalized for initial guess.
 HarFok:  IExCor= 1009 AccDes= 0.00D+00 IRadAn=         5 IDoV= 1 UseB2=F ITyADJ=14
 ICtDFT=  3500011 ScaDFX=  1.000000  1.000000  1.000000  1.000000
 FoFCou: FMM=F IPFlag=           0 FMFlag=      100000 FMFlg1=           0
         NFxFlg=           0 DoJE=T BraDBF=F KetDBF=T FulRan=T
         wScrn=  0.000000 ICntrl=       500 IOpCl=  0 I1Cent=   200000004 NGrid=           0
         NMat0=    1 NMatS0=      1 NMatT0=    0 NMatD0=    1 NMtDS0=    0 NMtDT0=    0
 Petite list used in FoFCou.
 Requested convergence on RMS density matrix=1.00D-08 within 128 cycles.
 Requested convergence on MAX density matrix=1.00D-06.
 Requested convergence on             energy=1.00D-06.
 No special actions if energy rises.
 Integral accuracy reduced to 1.0D-05 until final iterations.
 Problem detected with inexpensive integrals.
 Switching to full accuracy and repeating last cycle.
 SCF Done:  E(RM062X) =  -620.501237755     A.U. after   14 cycles
            NFock= 14  Conv=0.95D-08     -V/T= 2.0055

 **********************************************************************

            Population analysis using the SCF Density.

 **********************************************************************

 Orbital symmetries:
       Occupied  (A) (A) (A) (A) (A) (A) (A) (A) (A) (A) (A) (A)
                 (A) (A) (A) (A) (A) (A) (A) (A) (A) (A) (A) (A)
                 (A) (A) (A) (A) (A) (A) (A) (A) (A) (A) (A) (A)
                 (A) (A) (A) (A) (A) (A) (A) (A) (A) (A) (A) (A)
                 (A) (A) (A) (A) (A) (A) (A) (A) (A)
       Virtual   (A) (A) (A) (A) (A) (A) (A) (A) (A) (A) (A) (A)
                 (A) (A) (A) (A) (A) (A) (A) (A) (A) (A) (A) (A)
                 (A) (A) (A) (A) (A) (A) (A) (A) (A) (A) (A) (A)
                 (A) (A) (A) (A) (A) (A) (A) (A) (A) (A) (A) (A)
                 (A) (A) (A) (A) (A) (A) (A) (A) (A) (A) (A) (A)
                 (A) (A) (A) (A) (A) (A) (A) (A) (A) (A) (A) (A)
                 (A) (A) (A) (A) (A) (A) (A) (A) (A) (A) (A) (A)
                 (A) (A) (A) (A) (A) (A) (A) (A) (A) (A) (A) (A)
                 (A) (A) (A) (A) (A) (A) (A) (A) (A) (A) (A) (A)
                 (A) (A) (A) (A) (A) (A) (A) (A) (A) (A) (A) (A)
                 (A) (A) (A) (A) (A) (A) (A) (A) (A) (A) (A) (A)
                 (A) (A) (A) (A) (A) (A) (A) (A) (A) (A) (A) (A)
                 (A) (A) (A) (A) (A) (A) (A) (A) (A) (A) (A) (A)
                 (A) (A) (A) (A) (A) (A) (A) (A) (A) (A) (A) (A)
                 (A) (A) (A) (A) (A) (A) (A) (A) (A) (A) (A) (A)
                 (A) (A) (A) (A) (A) (A) (A) (A) (A) (A) (A) (A)
                 (A) (A) (A) (A) (A) (A) (A) (A) (A) (A) (A) (A)
                 (A) (A) (A) (A) (A) (A) (A) (A) (A) (A) (A) (A)
                 (A) (A) (A) (A) (A) (A) (A) (A) (A) (A) (A) (A)
                 (A) (A) (A) (A) (A) (A) (A) (A) (A) (A) (A) (A)
                 (A) (A) (A) (A) (A) (A) (A) (A) (A) (A) (A) (A)
                 (A) (A) (A) (A) (A) (A) (A) (A) (A) (A) (A) (A)
                 (A) (A) (A) (A) (A) (A) (A) (A) (A) (A) (A) (A)
                 (A) (A) (A) (A) (A) (A) (A) (A) (A) (A) (A) (A)
                 (A) (A) (A) (A) (A) (A) (A) (A) (A) (A) (A) (A)
                 (A) (A) (A) (A) (A) (A) (A) (A) (A) (A) (A) (A)
                 (A) (A) (A) (A) (A) (A) (A) (A) (A) (A) (A) (A)
                 (A) (A) (A) (A) (A) (A) (A) (A) (A) (A) (A) (A)
                 (A) (A) (A) (A) (A) (A) (A) (A) (A) (A) (A) (A)
                 (A) (A) (A) (A) (A) (A) (A) (A) (A) (A) (A) (A)
                 (A) (A) (A) (A) (A) (A) (A) (A) (A) (A) (A) (A)
                 (A) (A) (A) (A) (A) (A) (A) (A) (A) (A) (A) (A)
                 (A) (A) (A) (A) (A) (A) (A) (A) (A) (A) (A) (A)
                 (A) (A) (A) (A) (A) (A) (A) (A) (A) (A) (A) (A)
                 (A) (A) (A) (A) (A) (A) (A) (A) (A) (A) (A) (A)
                 (A) (A) (A) (A) (A) (A) (A) (A) (A) (A) (A) (A)
                 (A) (A) (A) (A) (A) (A) (A) (A) (A) (A) (A) (A)
                 (A) (A) (A) (A) (A) (A) (A) (A) (A) (A) (A) (A)
                 (A) (A) (A) (A) (A) (A) (A) (A) (A) (A) (A) (A)
                 (A) (A) (A) (A) (A) (A) (A) (A) (A) (A) (A) (A)
                 (A) (A) (A) (A) (A) (A) (A) (A) (A) (A) (A) (A)
                 (A) (A) (A) (A) (A) (A) (A) (A) (A) (A) (A) (A)
                 (A) (A) (A) (A) (A) (A) (A) (A) (A) (A) (A) (A)
                 (A) (A) (A) (A) (A) (A) (A) (A) (A) (A) (A) (A)
                 (A) (A) (A) (A) (A) (A) (A) (A) (A) (A) (A) (A)
                 (A) (A) (A) (A) (A) (A) (A)
 The electronic state is 1-A.
 Alpha  occ. eigenvalues --  -10.55314 -10.55107 -10.54583 -10.54582 -10.54192
 Alpha  occ. eigenvalues --  -10.54185 -10.54108 -10.54101 -10.53975 -10.53679
 Alpha  occ. eigenvalues --  -10.53679 -10.53449 -10.53446 -10.53317 -10.52494
 Alpha  occ. eigenvalues --  -10.52494  -0.97432  -0.95409  -0.89489  -0.88608
 Alpha  occ. eigenvalues --   -0.84355  -0.84351  -0.80912  -0.80853  -0.72397
 Alpha  occ. eigenvalues --   -0.71855  -0.70241  -0.68734  -0.64764  -0.63783
 Alpha  occ. eigenvalues --   -0.59515  -0.56739  -0.55167  -0.53747  -0.51359
 Alpha  occ. eigenvalues --   -0.51244  -0.50179  -0.50168  -0.48891  -0.48373
 Alpha  occ. eigenvalues --   -0.47742  -0.46110  -0.45040  -0.44281  -0.43657
 Alpha  occ. eigenvalues --   -0.43112  -0.41915  -0.40891  -0.40885  -0.40317
 Alpha  occ. eigenvalues --   -0.39826  -0.38056  -0.37567  -0.32710  -0.30841
 Alpha  occ. eigenvalues --   -0.29050  -0.27476
 Alpha virt. eigenvalues --   -0.00345   0.01886   0.02483   0.05291   0.06601
 Alpha virt. eigenvalues --    0.07888   0.08561   0.09945   0.10014   0.11260
 Alpha virt. eigenvalues --    0.11323   0.12097   0.12313   0.13191   0.14365
 Alpha virt. eigenvalues --    0.14728   0.15205   0.15840   0.16144   0.16184
 Alpha virt. eigenvalues --    0.16501   0.16971   0.17330   0.18387   0.18573
 Alpha virt. eigenvalues --    0.20279   0.20993   0.21901   0.21905   0.22662
 Alpha virt. eigenvalues --    0.23346   0.23420   0.23612   0.24868   0.25062
 Alpha virt. eigenvalues --    0.26012   0.26345   0.26438   0.26725   0.27225
 Alpha virt. eigenvalues --    0.28138   0.29091   0.29116   0.29536   0.30487
 Alpha virt. eigenvalues --    0.31561   0.32162   0.32384   0.32894   0.33463
 Alpha virt. eigenvalues --    0.34192   0.34604   0.35133   0.36145   0.36439
 Alpha virt. eigenvalues --    0.37676   0.38399   0.39042   0.39192   0.39739
 Alpha virt. eigenvalues --    0.39904   0.39950   0.40294   0.41510   0.42148
 Alpha virt. eigenvalues --    0.42568   0.42704   0.43584   0.44259   0.44914
 Alpha virt. eigenvalues --    0.45027   0.45852   0.45862   0.46269   0.46696
 Alpha virt. eigenvalues --    0.46770   0.47282   0.47593   0.48167   0.48355
 Alpha virt. eigenvalues --    0.49291   0.49515   0.49905   0.50756   0.51285
 Alpha virt. eigenvalues --    0.51491   0.52673   0.53393   0.54198   0.54841
 Alpha virt. eigenvalues --    0.54938   0.54983   0.55564   0.56297   0.57684
 Alpha virt. eigenvalues --    0.58730   0.59279   0.61009   0.61461   0.62611
 Alpha virt. eigenvalues --    0.62689   0.64063   0.64568   0.65909   0.66451
 Alpha virt. eigenvalues --    0.66654   0.68189   0.68399   0.68753   0.68814
 Alpha virt. eigenvalues --    0.70674   0.70973   0.72500   0.73317   0.73726
 Alpha virt. eigenvalues --    0.74054   0.74613   0.75701   0.76457   0.77026
 Alpha virt. eigenvalues --    0.77959   0.78301   0.79345   0.79830   0.82568
 Alpha virt. eigenvalues --    0.83214   0.84433   0.84598   0.85053   0.86245
 Alpha virt. eigenvalues --    0.86604   0.88440   0.88601   0.90039   0.90518
 Alpha virt. eigenvalues --    0.90972   0.91181   0.92433   0.93129   0.93162
 Alpha virt. eigenvalues --    0.94607   0.95653   0.96796   0.97250   0.98093
 Alpha virt. eigenvalues --    0.98465   0.98804   1.01813   1.02279   1.03986
 Alpha virt. eigenvalues --    1.03989   1.04489   1.06638   1.07853   1.08912
 Alpha virt. eigenvalues --    1.10923   1.11258   1.11712   1.12602   1.14700
 Alpha virt. eigenvalues --    1.16052   1.17127   1.17195   1.17757   1.18103
 Alpha virt. eigenvalues --    1.19810   1.19931   1.21335   1.23193   1.24406
 Alpha virt. eigenvalues --    1.24515   1.24892   1.25421   1.25952   1.26710
 Alpha virt. eigenvalues --    1.27457   1.28412   1.29267   1.32087   1.32106
 Alpha virt. eigenvalues --    1.33255   1.33404   1.34969   1.35493   1.37132
 Alpha virt. eigenvalues --    1.37309   1.40124   1.40518   1.42348   1.42360
 Alpha virt. eigenvalues --    1.45145   1.45394   1.45824   1.48123   1.48142
 Alpha virt. eigenvalues --    1.49573   1.51052   1.51158   1.53370   1.53567
 Alpha virt. eigenvalues --    1.55603   1.56380   1.56539   1.57283   1.58551
 Alpha virt. eigenvalues --    1.59521   1.59701   1.59918   1.60477   1.60535
 Alpha virt. eigenvalues --    1.60886   1.61794   1.63192   1.63385   1.63448
 Alpha virt. eigenvalues --    1.64629   1.65769   1.66513   1.67721   1.68855
 Alpha virt. eigenvalues --    1.69243   1.71229   1.71991   1.72711   1.73207
 Alpha virt. eigenvalues --    1.74803   1.75164   1.76486   1.76596   1.77190
 Alpha virt. eigenvalues --    1.78359   1.79599   1.81799   1.82444   1.82874
 Alpha virt. eigenvalues --    1.83213   1.83796   1.84957   1.88719   1.89610
 Alpha virt. eigenvalues --    1.90020   1.90633   1.91268   1.94323   1.95363
 Alpha virt. eigenvalues --    1.95590   1.97722   1.99110   2.00385   2.01710
 Alpha virt. eigenvalues --    2.02045   2.02374   2.02389   2.04457   2.05248
 Alpha virt. eigenvalues --    2.06071   2.07165   2.08209   2.09643   2.11363
 Alpha virt. eigenvalues --    2.12287   2.13349   2.16495   2.17052   2.17279
 Alpha virt. eigenvalues --    2.19597   2.20362   2.21430   2.21431   2.22133
 Alpha virt. eigenvalues --    2.24259   2.24314   2.25460   2.27199   2.27692
 Alpha virt. eigenvalues --    2.27917   2.28803   2.32245   2.34487   2.34799
 Alpha virt. eigenvalues --    2.35673   2.35839   2.36908   2.37258   2.38332
 Alpha virt. eigenvalues --    2.38360   2.40158   2.41569   2.42232   2.44935
 Alpha virt. eigenvalues --    2.45546   2.47582   2.48528   2.48733   2.49332
 Alpha virt. eigenvalues --    2.51122   2.51725   2.52754   2.53709   2.54666
 Alpha virt. eigenvalues --    2.55962   2.57176   2.58719   2.60216   2.60715
 Alpha virt. eigenvalues --    2.61463   2.61566   2.61736   2.63056   2.64160
 Alpha virt. eigenvalues --    2.64533   2.64730   2.65273   2.66736   2.67210
 Alpha virt. eigenvalues --    2.67624   2.67777   2.68248   2.68737   2.69027
 Alpha virt. eigenvalues --    2.69920   2.70387   2.72113   2.72839   2.73807
 Alpha virt. eigenvalues --    2.75014   2.75490   2.77113   2.77514   2.77586
 Alpha virt. eigenvalues --    2.79519   2.79942   2.81199   2.82294   2.82803
 Alpha virt. eigenvalues --    2.83544   2.83938   2.84298   2.84996   2.85360
 Alpha virt. eigenvalues --    2.85568   2.86119   2.87410   2.89271   2.89364
 Alpha virt. eigenvalues --    2.90717   2.91060   2.91327   2.93307   2.95436
 Alpha virt. eigenvalues --    2.95900   2.97085   2.98031   2.99415   2.99703
 Alpha virt. eigenvalues --    3.02734   3.04433   3.04630   3.05971   3.06167
 Alpha virt. eigenvalues --    3.06472   3.07951   3.08138   3.08959   3.09551
 Alpha virt. eigenvalues --    3.11453   3.11853   3.13513   3.13730   3.13823
 Alpha virt. eigenvalues --    3.14409   3.15420   3.15640   3.16343   3.17276
 Alpha virt. eigenvalues --    3.18878   3.19959   3.20095   3.20535   3.22283
 Alpha virt. eigenvalues --    3.22581   3.23485   3.24566   3.24707   3.25342
 Alpha virt. eigenvalues --    3.25983   3.27394   3.27931   3.29174   3.29998
 Alpha virt. eigenvalues --    3.31349   3.31424   3.31768   3.32655   3.32898
 Alpha virt. eigenvalues --    3.33997   3.34344   3.34664   3.35373   3.35659
 Alpha virt. eigenvalues --    3.36565   3.36597   3.37942   3.39632   3.40367
 Alpha virt. eigenvalues --    3.41123   3.41852   3.42885   3.43123   3.44403
 Alpha virt. eigenvalues --    3.44719   3.45755   3.47907   3.48201   3.49592
 Alpha virt. eigenvalues --    3.49796   3.50500   3.50507   3.51291   3.51944
 Alpha virt. eigenvalues --    3.52718   3.53127   3.54054   3.54841   3.56547
 Alpha virt. eigenvalues --    3.57659   3.58414   3.59013   3.59299   3.62034
 Alpha virt. eigenvalues --    3.62337   3.62944   3.64098   3.66696   3.67993
 Alpha virt. eigenvalues --    3.68605   3.69212   3.73308   3.75078   3.75153
 Alpha virt. eigenvalues --    3.76068   3.77869   3.79483   3.79689   3.80165
 Alpha virt. eigenvalues --    3.82942   3.83086   3.86466   3.88750   3.90307
 Alpha virt. eigenvalues --    3.91870   3.91976   3.94337   3.95237   3.95561
 Alpha virt. eigenvalues --    3.96439   3.97948   3.98822   4.01163   4.02385
 Alpha virt. eigenvalues --    4.04945   4.05924   4.08415   4.09431   4.10251
 Alpha virt. eigenvalues --    4.10630   4.13477   4.13756   4.14247   4.16955
 Alpha virt. eigenvalues --    4.17723   4.18016   4.18300   4.18672   4.19728
 Alpha virt. eigenvalues --    4.20902   4.20972   4.22902   4.23343   4.24120
 Alpha virt. eigenvalues --    4.26164   4.28926   4.29207   4.31709   4.33581
 Alpha virt. eigenvalues --    4.35103   4.36087   4.36796   4.37188   4.40400
 Alpha virt. eigenvalues --    4.42677   4.42924   4.44234   4.49710   4.50403
 Alpha virt. eigenvalues --    4.53221   4.53251   4.56793   4.57200   4.60923
 Alpha virt. eigenvalues --    4.61694   4.65158   4.65335   4.66313   4.69057
 Alpha virt. eigenvalues --    4.71755   4.73855   4.74327   4.75853   4.76532
 Alpha virt. eigenvalues --    4.81755   4.84448   4.84995   4.88696   4.89552
 Alpha virt. eigenvalues --    4.97547   5.01835   5.12602   5.17108   5.21319
 Alpha virt. eigenvalues --    5.21808   5.24749   5.26301   5.32342   5.35673
 Alpha virt. eigenvalues --    5.37997   5.41137   5.45370   5.55066   5.59312
 Alpha virt. eigenvalues --    5.75440  22.12829  22.41578  22.44576  22.46041
 Alpha virt. eigenvalues --   22.62921  22.64288  22.68739  22.71550  22.84358
 Alpha virt. eigenvalues --   22.86210  22.95155  22.95331  23.10465  23.10997
 Alpha virt. eigenvalues --   23.31128  23.47832
          Condensed to atoms (all electrons):
               1          2          3          4          5          6
     1  C    5.012020   0.507662  -0.046004  -0.046039  -0.032754   0.511013
     2  C    0.507662   4.902186   0.525041  -0.038960  -0.046049  -0.058545
     3  C   -0.046004   0.525041   4.877366   0.525030  -0.045997  -0.038685
     4  C   -0.046039  -0.038960   0.525030   4.902231   0.507630  -0.058532
     5  C   -0.032754  -0.046049  -0.045997   0.507630   5.012041   0.511036
     6  C    0.511013  -0.058545  -0.038685  -0.058532   0.511036   4.945819
     7  H    0.004247  -0.035043   0.410494  -0.035047   0.004248   0.000914
     8  H    0.005185  -0.000146   0.002465  -0.022593   0.394469  -0.035204
     9  H   -0.030899   0.407853  -0.031430   0.003528   0.000073   0.004525
    10  H    0.394481  -0.022588   0.002466  -0.000147   0.005188  -0.035208
    11  C   -0.000276  -0.000036   0.000014  -0.000036  -0.000274   0.003045
    12  C    0.004957   0.000031  -0.000064   0.000154  -0.000357   0.001710
    13  C   -0.004824   0.000473   0.000184  -0.000610   0.007773  -0.070398
    14  C   -0.079487   0.007315  -0.003300   0.007312  -0.079498   0.279358
    15  C    0.007770  -0.000610   0.000184   0.000475  -0.004823  -0.070404
    16  C   -0.000356   0.000154  -0.000064   0.000031   0.004955   0.001709
    17  H    0.003521   0.000717  -0.000043  -0.000116  -0.000278   0.000345
    18  H   -0.000278  -0.000116  -0.000043   0.000718   0.003518   0.000349
    19  H    0.000072   0.003528  -0.031426   0.407867  -0.030903   0.004524
    20  H   -0.000012  -0.000000   0.000000  -0.000000  -0.000012   0.000161
    21  C    0.000088  -0.000022  -0.000000  -0.000000   0.000052  -0.000422
    22  H   -0.000046  -0.000007   0.000000  -0.000001   0.000000   0.000164
    23  H    0.000006   0.000000   0.000000   0.000000  -0.000002  -0.000036
    24  C    0.000052  -0.000000  -0.000000  -0.000022   0.000088  -0.000422
    25  H    0.000000  -0.000001   0.000000  -0.000007  -0.000046   0.000163
    26  H   -0.000002   0.000000   0.000000   0.000000   0.000006  -0.000036
    27  C    0.000005   0.000003  -0.000000   0.000001   0.000001  -0.000130
    28  H   -0.000002  -0.000000   0.000000  -0.000000   0.000000   0.000028
    29  H    0.000000  -0.000000   0.000000  -0.000000  -0.000000   0.000001
    30  H    0.000038   0.000001  -0.000000   0.000000  -0.000007  -0.000084
    31  C    0.000001   0.000001  -0.000000   0.000003   0.000005  -0.000130
    32  H   -0.000007   0.000000  -0.000000   0.000001   0.000038  -0.000084
    33  H   -0.000000  -0.000000   0.000000  -0.000000   0.000000   0.000001
    34  H    0.000000  -0.000000   0.000000  -0.000000  -0.000002   0.000028
               7          8          9         10         11         12
     1  C    0.004247   0.005185  -0.030899   0.394481  -0.000276   0.004957
     2  C   -0.035043  -0.000146   0.407853  -0.022588  -0.000036   0.000031
     3  C    0.410494   0.002465  -0.031430   0.002466   0.000014  -0.000064
     4  C   -0.035047  -0.022593   0.003528  -0.000147  -0.000036   0.000154
     5  C    0.004248   0.394469   0.000073   0.005188  -0.000274  -0.000357
     6  C    0.000914  -0.035204   0.004525  -0.035208   0.003045   0.001710
     7  H    0.517918  -0.000292  -0.004065  -0.000292  -0.000000  -0.000000
     8  H   -0.000292   0.490827   0.000068  -0.000239  -0.000228   0.000016
     9  H   -0.004065   0.000068   0.510626  -0.003413  -0.000001   0.000004
    10  H   -0.000292  -0.000239  -0.003413   0.490824  -0.000228   0.001861
    11  C   -0.000000  -0.000228  -0.000001  -0.000228   5.225913   0.457171
    12  C   -0.000000   0.000016   0.000004   0.001861   0.457171   4.996019
    13  C   -0.000008  -0.000138   0.000043   0.002605  -0.031552   0.427332
    14  C    0.000129   0.003771  -0.000083   0.003765  -0.082744  -0.018527
    15  C   -0.000008   0.002603   0.000024  -0.000138  -0.031518  -0.077023
    16  C   -0.000000   0.001861   0.000002   0.000016   0.457135  -0.028544
    17  H   -0.000000   0.000026   0.000046  -0.002238   0.005240  -0.013724
    18  H   -0.000000  -0.002238   0.000001   0.000026   0.005234  -0.000262
    19  H   -0.004062  -0.003411  -0.000283   0.000068  -0.000001   0.000002
    20  H    0.000000  -0.000002  -0.000000  -0.000002   0.385188  -0.030132
    21  C    0.000000   0.000007   0.000001   0.000163  -0.065213   0.252224
    22  H    0.000000  -0.000000  -0.000000   0.000048   0.006898  -0.058099
    23  H   -0.000000  -0.000000  -0.000000  -0.000008  -0.003830  -0.061456
    24  C    0.000000   0.000163   0.000000   0.000007  -0.065235   0.013461
    25  H    0.000000   0.000048   0.000000  -0.000000   0.006897  -0.001450
    26  H   -0.000000  -0.000008  -0.000000  -0.000000  -0.003845   0.000395
    27  C   -0.000000   0.000001  -0.000000   0.000012  -0.014636  -0.020900
    28  H    0.000000  -0.000000   0.000000  -0.000000  -0.005815  -0.000139
    29  H    0.000000  -0.000000   0.000000  -0.000000   0.000168   0.013356
    30  H   -0.000000  -0.000001  -0.000000   0.000002   0.004595  -0.001179
    31  C   -0.000000   0.000012  -0.000000   0.000001  -0.014620   0.001060
    32  H   -0.000000   0.000002   0.000000  -0.000001   0.004592  -0.000143
    33  H    0.000000  -0.000000   0.000000  -0.000000   0.000168   0.000009
    34  H    0.000000  -0.000000   0.000000  -0.000000  -0.005817  -0.000179
              13         14         15         16         17         18
     1  C   -0.004824  -0.079487   0.007770  -0.000356   0.003521  -0.000278
     2  C    0.000473   0.007315  -0.000610   0.000154   0.000717  -0.000116
     3  C    0.000184  -0.003300   0.000184  -0.000064  -0.000043  -0.000043
     4  C   -0.000610   0.007312   0.000475   0.000031  -0.000116   0.000718
     5  C    0.007773  -0.079498  -0.004823   0.004955  -0.000278   0.003518
     6  C   -0.070398   0.279358  -0.070404   0.001709   0.000345   0.000349
     7  H   -0.000008   0.000129  -0.000008  -0.000000  -0.000000  -0.000000
     8  H   -0.000138   0.003771   0.002603   0.001861   0.000026  -0.002238
     9  H    0.000043  -0.000083   0.000024   0.000002   0.000046   0.000001
    10  H    0.002605   0.003765  -0.000138   0.000016  -0.002238   0.000026
    11  C   -0.031552  -0.082744  -0.031518   0.457135   0.005240   0.005234
    12  C    0.427332  -0.018527  -0.077023  -0.028544  -0.013724  -0.000262
    13  C    5.292122   0.429968  -0.000654  -0.076999   0.366459   0.006878
    14  C    0.429968   5.002032   0.429946  -0.018528  -0.023167  -0.023148
    15  C   -0.000654   0.429946   5.292137   0.427292   0.006886   0.366455
    16  C   -0.076999  -0.018528   0.427292   4.996073  -0.000265  -0.013725
    17  H    0.366459  -0.023167   0.006886  -0.000265   0.484372  -0.000252
    18  H    0.006878  -0.023148   0.366455  -0.013725  -0.000252   0.484365
    19  H    0.000024  -0.000083   0.000043   0.000004   0.000001   0.000046
    20  H    0.010007  -0.001951   0.010006  -0.030137  -0.000284  -0.000284
    21  C   -0.068124   0.014495  -0.001274   0.013467   0.000176   0.000022
    22  H   -0.005607   0.000472   0.000476  -0.001453   0.000257   0.000000
    23  H    0.008604  -0.001774   0.000807   0.000396   0.000573   0.000002
    24  C   -0.001274   0.014491  -0.068106   0.252250   0.000022   0.000172
    25  H    0.000475   0.000475  -0.005613  -0.058109   0.000000   0.000256
    26  H    0.000807  -0.001772   0.008598  -0.061423   0.000002   0.000573
    27  C   -0.015029   0.001939  -0.001120   0.001060  -0.002416  -0.000008
    28  H    0.004441  -0.000127  -0.000017  -0.000182   0.000018  -0.000000
    29  H    0.000240  -0.000009   0.000023   0.000009   0.000007   0.000000
    30  H   -0.006030  -0.000053   0.000164  -0.000143   0.001108   0.000000
    31  C   -0.001119   0.001935  -0.015020  -0.020909  -0.000008  -0.002413
    32  H    0.000164  -0.000052  -0.006029  -0.001172   0.000000   0.001108
    33  H    0.000023  -0.000009   0.000240   0.013352   0.000000   0.000007
    34  H   -0.000017  -0.000126   0.004437  -0.000142  -0.000000   0.000018
              19         20         21         22         23         24
     1  C    0.000072  -0.000012   0.000088  -0.000046   0.000006   0.000052
     2  C    0.003528  -0.000000  -0.000022  -0.000007   0.000000  -0.000000
     3  C   -0.031426   0.000000  -0.000000   0.000000   0.000000  -0.000000
     4  C    0.407867  -0.000000  -0.000000  -0.000001   0.000000  -0.000022
     5  C   -0.030903  -0.000012   0.000052   0.000000  -0.000002   0.000088
     6  C    0.004524   0.000161  -0.000422   0.000164  -0.000036  -0.000422
     7  H   -0.004062   0.000000   0.000000   0.000000  -0.000000   0.000000
     8  H   -0.003411  -0.000002   0.000007  -0.000000  -0.000000   0.000163
     9  H   -0.000283  -0.000000   0.000001  -0.000000  -0.000000   0.000000
    10  H    0.000068  -0.000002   0.000163   0.000048  -0.000008   0.000007
    11  C   -0.000001   0.385188  -0.065213   0.006898  -0.003830  -0.065235
    12  C    0.000002  -0.030132   0.252224  -0.058099  -0.061456   0.013461
    13  C    0.000024   0.010007  -0.068124  -0.005607   0.008604  -0.001274
    14  C   -0.000083  -0.001951   0.014495   0.000472  -0.001774   0.014491
    15  C    0.000043   0.010006  -0.001274   0.000476   0.000807  -0.068106
    16  C    0.000004  -0.030137   0.013467  -0.001453   0.000396   0.252250
    17  H    0.000001  -0.000284   0.000176   0.000257   0.000573   0.000022
    18  H    0.000046  -0.000284   0.000022   0.000000   0.000002   0.000172
    19  H    0.510605  -0.000000   0.000000   0.000000  -0.000000   0.000001
    20  H   -0.000000   0.506465  -0.002336   0.000358   0.000758  -0.002337
    21  C    0.000000  -0.002336   5.226131   0.444961   0.444294  -0.000121
    22  H    0.000000   0.000358   0.444961   0.541638  -0.026919  -0.000008
    23  H   -0.000000   0.000758   0.444294  -0.026919   0.541941  -0.000080
    24  C    0.000001  -0.002337  -0.000121  -0.000008  -0.000080   5.226092
    25  H   -0.000000   0.000358  -0.000008  -0.000001   0.000001   0.444972
    26  H   -0.000000   0.000757  -0.000080   0.000001   0.000039   0.444284
    27  C   -0.000000  -0.001215   0.238338  -0.049366  -0.048792   0.000058
    28  H    0.000000   0.000857  -0.036090   0.006414  -0.003444  -0.000030
    29  H    0.000000  -0.000035  -0.052145  -0.003111  -0.003012  -0.000003
    30  H    0.000000  -0.000004  -0.035253  -0.003322   0.006265   0.000002
    31  C   -0.000000  -0.001213   0.000058  -0.000000  -0.000011   0.238341
    32  H   -0.000000  -0.000004   0.000002   0.000000   0.000002  -0.035250
    33  H    0.000000  -0.000035  -0.000003  -0.000000   0.000001  -0.052139
    34  H    0.000000   0.000856  -0.000030  -0.000001   0.000009  -0.036083
              25         26         27         28         29         30
     1  C    0.000000  -0.000002   0.000005  -0.000002   0.000000   0.000038
     2  C   -0.000001   0.000000   0.000003  -0.000000  -0.000000   0.000001
     3  C    0.000000   0.000000  -0.000000   0.000000   0.000000  -0.000000
     4  C   -0.000007   0.000000   0.000001  -0.000000  -0.000000   0.000000
     5  C   -0.000046   0.000006   0.000001   0.000000  -0.000000  -0.000007
     6  C    0.000163  -0.000036  -0.000130   0.000028   0.000001  -0.000084
     7  H    0.000000  -0.000000  -0.000000   0.000000   0.000000  -0.000000
     8  H    0.000048  -0.000008   0.000001  -0.000000  -0.000000  -0.000001
     9  H    0.000000  -0.000000  -0.000000   0.000000   0.000000  -0.000000
    10  H   -0.000000  -0.000000   0.000012  -0.000000  -0.000000   0.000002
    11  C    0.006897  -0.003845  -0.014636  -0.005815   0.000168   0.004595
    12  C   -0.001450   0.000395  -0.020900  -0.000139   0.013356  -0.001179
    13  C    0.000475   0.000807  -0.015029   0.004441   0.000240  -0.006030
    14  C    0.000475  -0.001772   0.001939  -0.000127  -0.000009  -0.000053
    15  C   -0.005613   0.008598  -0.001120  -0.000017   0.000023   0.000164
    16  C   -0.058109  -0.061423   0.001060  -0.000182   0.000009  -0.000143
    17  H    0.000000   0.000002  -0.002416   0.000018   0.000007   0.001108
    18  H    0.000256   0.000573  -0.000008  -0.000000   0.000000   0.000000
    19  H   -0.000000  -0.000000  -0.000000   0.000000   0.000000   0.000000
    20  H    0.000358   0.000757  -0.001215   0.000857  -0.000035  -0.000004
    21  C   -0.000008  -0.000080   0.238338  -0.036090  -0.052145  -0.035253
    22  H   -0.000001   0.000001  -0.049366   0.006414  -0.003111  -0.003322
    23  H    0.000001   0.000039  -0.048792  -0.003444  -0.003012   0.006265
    24  C    0.444972   0.444284   0.000058  -0.000030  -0.000003   0.000002
    25  H    0.541625  -0.026914  -0.000000  -0.000001  -0.000000   0.000000
    26  H   -0.026914   0.541927  -0.000011   0.000009   0.000001   0.000002
    27  C   -0.000000  -0.000011   5.082969   0.406503   0.415358   0.408036
    28  H   -0.000001   0.000009   0.406503   0.537028  -0.025907  -0.024429
    29  H   -0.000000   0.000001   0.415358  -0.025907   0.541989  -0.025601
    30  H    0.000000   0.000002   0.408036  -0.024429  -0.025601   0.532435
    31  C   -0.049351  -0.048794   0.000008   0.000000  -0.000000  -0.000000
    32  H   -0.003320   0.006264  -0.000000   0.000000   0.000000   0.000000
    33  H   -0.003112  -0.003010  -0.000000   0.000000   0.000000   0.000000
    34  H    0.006411  -0.003441   0.000000   0.000000   0.000000   0.000000
              31         32         33         34
     1  C    0.000001  -0.000007  -0.000000   0.000000
     2  C    0.000001   0.000000  -0.000000  -0.000000
     3  C   -0.000000  -0.000000   0.000000   0.000000
     4  C    0.000003   0.000001  -0.000000  -0.000000
     5  C    0.000005   0.000038   0.000000  -0.000002
     6  C   -0.000130  -0.000084   0.000001   0.000028
     7  H   -0.000000  -0.000000   0.000000   0.000000
     8  H    0.000012   0.000002  -0.000000  -0.000000
     9  H   -0.000000   0.000000   0.000000   0.000000
    10  H    0.000001  -0.000001  -0.000000  -0.000000
    11  C   -0.014620   0.004592   0.000168  -0.005817
    12  C    0.001060  -0.000143   0.000009  -0.000179
    13  C   -0.001119   0.000164   0.000023  -0.000017
    14  C    0.001935  -0.000052  -0.000009  -0.000126
    15  C   -0.015020  -0.006029   0.000240   0.004437
    16  C   -0.020909  -0.001172   0.013352  -0.000142
    17  H   -0.000008   0.000000   0.000000  -0.000000
    18  H   -0.002413   0.001108   0.000007   0.000018
    19  H   -0.000000  -0.000000   0.000000   0.000000
    20  H   -0.001213  -0.000004  -0.000035   0.000856
    21  C    0.000058   0.000002  -0.000003  -0.000030
    22  H   -0.000000   0.000000  -0.000000  -0.000001
    23  H   -0.000011   0.000002   0.000001   0.000009
    24  C    0.238341  -0.035250  -0.052139  -0.036083
    25  H   -0.049351  -0.003320  -0.003112   0.006411
    26  H   -0.048794   0.006264  -0.003010  -0.003441
    27  C    0.000008  -0.000000  -0.000000   0.000000
    28  H    0.000000   0.000000   0.000000   0.000000
    29  H   -0.000000   0.000000   0.000000   0.000000
    30  H   -0.000000   0.000000   0.000000   0.000000
    31  C    5.082950   0.408023   0.415351   0.406514
    32  H    0.408023   0.532436  -0.025600  -0.024426
    33  H    0.415351  -0.025600   0.541992  -0.025908
    34  H    0.406514  -0.024426  -0.025908   0.537010
 Mulliken charges:
               1
     1  C   -0.210133
     2  C   -0.152842
     3  C   -0.146186
     4  C   -0.152872
     5  C   -0.210117
     6  C    0.103429
     7  H    0.140868
     8  H    0.162976
     9  H    0.143381
    10  H    0.162970
    11  C   -0.236352
    12  C    0.142421
    13  C   -0.276236
    14  C    0.137035
    15  C   -0.276209
    16  C    0.142387
    17  H    0.173015
    18  H    0.173019
    19  H    0.143385
    20  H    0.154222
    21  C   -0.373359
    22  H    0.146254
    23  H    0.145667
    24  C   -0.373346
    25  H    0.146252
    26  H    0.145674
    27  C   -0.400668
    28  H    0.140887
    29  H    0.138672
    30  H    0.143458
    31  C   -0.400672
    32  H    0.143457
    33  H    0.138672
    34  H    0.140891
 Sum of Mulliken charges =  -0.00000
 Mulliken charges with hydrogens summed into heavy atoms:
               1
     1  C   -0.047164
     2  C   -0.009461
     3  C   -0.005318
     4  C   -0.009487
     5  C   -0.047141
     6  C    0.103429
    11  C   -0.082130
    12  C    0.142421
    13  C   -0.103221
    14  C    0.137035
    15  C   -0.103190
    16  C    0.142387
    21  C   -0.081438
    24  C   -0.081420
    27  C    0.022349
    31  C    0.022349
 Electronic spatial extent (au):  <R**2>=           4733.3976
 Charge=             -0.0000 electrons
 Dipole moment (field-independent basis, Debye):
    X=             -0.4323    Y=              0.0001    Z=              0.0001  Tot=              0.4323
 Quadrupole moment (field-independent basis, Debye-Ang):
   XX=            -87.9179   YY=            -92.0657   ZZ=            -99.2376
   XY=             -0.0006   XZ=             -0.0001   YZ=             -5.4340
 Traceless Quadrupole moment (field-independent basis, Debye-Ang):
   XX=              5.1558   YY=              1.0081   ZZ=             -6.1639
   XY=             -0.0006   XZ=             -0.0001   YZ=             -5.4340
 Octapole moment (field-independent basis, Debye-Ang**2):
  XXX=             14.9918  YYY=              0.0018  ZZZ=             -0.0001  XYY=             -9.4611
  XXY=             -0.0010  XXZ=              0.0008  XZZ=              3.8929  YZZ=             -0.0002
  YYZ=              0.0008  XYZ=            -10.9464
 Hexadecapole moment (field-independent basis, Debye-Ang**3):
 XXXX=          -4012.2553 YYYY=          -1924.3380 ZZZZ=           -395.6860 XXXY=             -0.0144
 XXXZ=             -0.0023 YYYX=             -0.0075 YYYZ=            -26.4897 ZZZX=             -0.0001
 ZZZY=            -16.3453 XXYY=          -1035.5765 XXZZ=           -789.1626 YYZZ=           -387.0413
 XXYZ=            -62.5741 YYXZ=              0.0028 ZZXY=             -0.0016
 N-N= 9.939406552753D+02 E-N=-3.425448127496D+03  KE= 6.170999061299D+02
 ******************************Gaussian NBO Version 3.1******************************
             N A T U R A L   A T O M I C   O R B I T A L   A N D
          N A T U R A L   B O N D   O R B I T A L   A N A L Y S I S
 ******************************Gaussian NBO Version 3.1******************************
       /RESON  / : Allow strongly delocalized NBO set

 Analyzing the SCF density

 Job title: Structure697                                                    

 Storage needed:   1098554 in NPA,   1462263 in NBO (1048569880 available)
 GSVD:  LWork=      132262 too small for GESVD, short by      329795 words or      329795 for optimal perf.


 NATURAL POPULATIONS:  Natural atomic orbital occupancies 
                                                          
   NAO  Atom  No  lang   Type(AO)    Occupancy      Energy
 ----------------------------------------------------------
     1    C    1  S      Cor( 1S)     1.99916     -10.37951
     2    C    1  S      Val( 2S)     0.96956      -0.22526
     3    C    1  S      Ryd( 4S)     0.00092       1.45687
     4    C    1  S      Ryd( 3S)     0.00010       1.43940
     5    C    1  S      Ryd( 5S)     0.00001      21.30618
     6    C    1  px     Val( 2p)     1.07906      -0.06482
     7    C    1  px     Ryd( 3p)     0.00305       1.17809
     8    C    1  px     Ryd( 4p)     0.00016       2.41103
     9    C    1  py     Val( 2p)     1.05575      -0.09200
    10    C    1  py     Ryd( 3p)     0.00270       0.87260
    11    C    1  py     Ryd( 4p)     0.00027       1.98699
    12    C    1  pz     Val( 2p)     1.07566      -0.08535
    13    C    1  pz     Ryd( 3p)     0.00278       0.91586
    14    C    1  pz     Ryd( 4p)     0.00029       2.10642
    15    C    1  dxy    Ryd( 3d)     0.00091       1.59868
    16    C    1  dxy    Ryd( 4d)     0.00045       3.26718
    17    C    1  dxz    Ryd( 3d)     0.00109       1.65769
    18    C    1  dxz    Ryd( 4d)     0.00049       3.34653
    19    C    1  dyz    Ryd( 3d)     0.00102       1.63861
    20    C    1  dyz    Ryd( 4d)     0.00018       3.36417
    21    C    1  dx2y2  Ryd( 3d)     0.00125       1.67016
    22    C    1  dx2y2  Ryd( 4d)     0.00025       3.36520
    23    C    1  dz2    Ryd( 3d)     0.00067       1.48520
    24    C    1  dz2    Ryd( 4d)     0.00015       3.08487
    25    C    1  f(0)   Ryd( 4f)     0.00011       3.55058
    26    C    1  f(C1)  Ryd( 4f)     0.00007       3.70429
    27    C    1  f(S1)  Ryd( 4f)     0.00024       3.49932
    28    C    1  f(C2)  Ryd( 4f)     0.00016       3.63924
    29    C    1  f(S2)  Ryd( 4f)     0.00013       3.84302
    30    C    1  f(C3)  Ryd( 4f)     0.00011       3.82220
    31    C    1  f(S3)  Ryd( 4f)     0.00008       3.69968
 
    32    C    2  S      Cor( 1S)     1.99924     -10.38064
    33    C    2  S      Val( 2S)     0.97549      -0.23232
    34    C    2  S      Ryd( 3S)     0.00084       1.18166
    35    C    2  S      Ryd( 4S)     0.00008       1.29880
    36    C    2  S      Ryd( 5S)     0.00000      21.64057
    37    C    2  px     Val( 2p)     1.07723      -0.06263
    38    C    2  px     Ryd( 3p)     0.00386       1.05434
    39    C    2  px     Ryd( 4p)     0.00026       2.19595
    40    C    2  py     Val( 2p)     1.06020      -0.09357
    41    C    2  py     Ryd( 3p)     0.00275       0.91300
    42    C    2  py     Ryd( 4p)     0.00026       1.69284
    43    C    2  pz     Val( 2p)     1.07509      -0.08881
    44    C    2  pz     Ryd( 3p)     0.00311       0.96052
    45    C    2  pz     Ryd( 4p)     0.00024       1.79309
    46    C    2  dxy    Ryd( 3d)     0.00067       1.62607
    47    C    2  dxy    Ryd( 4d)     0.00041       3.23945
    48    C    2  dxz    Ryd( 3d)     0.00077       1.67835
    49    C    2  dxz    Ryd( 4d)     0.00049       3.29768
    50    C    2  dyz    Ryd( 3d)     0.00105       1.60903
    51    C    2  dyz    Ryd( 4d)     0.00025       3.30976
    52    C    2  dx2y2  Ryd( 3d)     0.00125       1.60922
    53    C    2  dx2y2  Ryd( 4d)     0.00031       3.31534
    54    C    2  dz2    Ryd( 3d)     0.00061       1.43157
    55    C    2  dz2    Ryd( 4d)     0.00020       3.03185
    56    C    2  f(0)   Ryd( 4f)     0.00010       3.48882
    57    C    2  f(C1)  Ryd( 4f)     0.00004       3.68564
    58    C    2  f(S1)  Ryd( 4f)     0.00018       3.48401
    59    C    2  f(C2)  Ryd( 4f)     0.00014       3.62731
    60    C    2  f(S2)  Ryd( 4f)     0.00012       3.80753
    61    C    2  f(C3)  Ryd( 4f)     0.00008       3.81472
    62    C    2  f(S3)  Ryd( 4f)     0.00009       3.65372
 
    63    C    3  S      Cor( 1S)     1.99924     -10.37918
    64    C    3  S      Val( 2S)     0.97606      -0.23272
    65    C    3  S      Ryd( 3S)     0.00086       1.19647
    66    C    3  S      Ryd( 4S)     0.00008       1.32970
    67    C    3  S      Ryd( 5S)     0.00000      21.61868
    68    C    3  px     Val( 2p)     1.16963      -0.06902
    69    C    3  px     Ryd( 3p)     0.00458       1.19384
    70    C    3  px     Ryd( 4p)     0.00016       2.10076
    71    C    3  py     Val( 2p)     1.02401      -0.09031
    72    C    3  py     Ryd( 3p)     0.00258       0.83198
    73    C    3  py     Ryd( 4p)     0.00037       1.76850
    74    C    3  pz     Val( 2p)     1.02656      -0.08498
    75    C    3  pz     Ryd( 3p)     0.00278       0.86360
    76    C    3  pz     Ryd( 4p)     0.00034       1.85534
    77    C    3  dxy    Ryd( 3d)     0.00103       1.52889
    78    C    3  dxy    Ryd( 4d)     0.00028       3.03317
    79    C    3  dxz    Ryd( 3d)     0.00119       1.56659
    80    C    3  dxz    Ryd( 4d)     0.00032       3.08772
    81    C    3  dyz    Ryd( 3d)     0.00096       1.75393
    82    C    3  dyz    Ryd( 4d)     0.00012       3.45597
    83    C    3  dx2y2  Ryd( 3d)     0.00063       1.77006
    84    C    3  dx2y2  Ryd( 4d)     0.00055       3.27522
    85    C    3  dz2    Ryd( 3d)     0.00027       1.59516
    86    C    3  dz2    Ryd( 4d)     0.00036       3.07747
    87    C    3  f(0)   Ryd( 4f)     0.00007       3.52869
    88    C    3  f(C1)  Ryd( 4f)     0.00004       3.68389
    89    C    3  f(S1)  Ryd( 4f)     0.00017       3.59533
    90    C    3  f(C2)  Ryd( 4f)     0.00015       3.59254
    91    C    3  f(S2)  Ryd( 4f)     0.00021       3.89164
    92    C    3  f(C3)  Ryd( 4f)     0.00008       3.71472
    93    C    3  f(S3)  Ryd( 4f)     0.00004       3.51017
 
    94    C    4  S      Cor( 1S)     1.99924     -10.38066
    95    C    4  S      Val( 2S)     0.97552      -0.23235
    96    C    4  S      Ryd( 3S)     0.00084       1.18163
    97    C    4  S      Ryd( 4S)     0.00008       1.29888
    98    C    4  S      Ryd( 5S)     0.00000      21.64066
    99    C    4  px     Val( 2p)     1.07721      -0.06263
   100    C    4  px     Ryd( 3p)     0.00386       1.05429
   101    C    4  px     Ryd( 4p)     0.00026       2.19581
   102    C    4  py     Val( 2p)     1.06019      -0.09357
   103    C    4  py     Ryd( 3p)     0.00275       0.91297
   104    C    4  py     Ryd( 4p)     0.00026       1.69286
   105    C    4  pz     Val( 2p)     1.07508      -0.08881
   106    C    4  pz     Ryd( 3p)     0.00311       0.96048
   107    C    4  pz     Ryd( 4p)     0.00024       1.79309
   108    C    4  dxy    Ryd( 3d)     0.00067       1.62610
   109    C    4  dxy    Ryd( 4d)     0.00041       3.23931
   110    C    4  dxz    Ryd( 3d)     0.00077       1.67839
   111    C    4  dxz    Ryd( 4d)     0.00049       3.29755
   112    C    4  dyz    Ryd( 3d)     0.00105       1.60912
   113    C    4  dyz    Ryd( 4d)     0.00025       3.30974
   114    C    4  dx2y2  Ryd( 3d)     0.00125       1.60922
   115    C    4  dx2y2  Ryd( 4d)     0.00031       3.31525
   116    C    4  dz2    Ryd( 3d)     0.00061       1.43163
   117    C    4  dz2    Ryd( 4d)     0.00020       3.03176
   118    C    4  f(0)   Ryd( 4f)     0.00010       3.48881
   119    C    4  f(C1)  Ryd( 4f)     0.00004       3.68551
   120    C    4  f(S1)  Ryd( 4f)     0.00018       3.48403
   121    C    4  f(C2)  Ryd( 4f)     0.00014       3.62730
   122    C    4  f(S2)  Ryd( 4f)     0.00012       3.80743
   123    C    4  f(C3)  Ryd( 4f)     0.00008       3.81453
   124    C    4  f(S3)  Ryd( 4f)     0.00009       3.65365
 
   125    C    5  S      Cor( 1S)     1.99916     -10.37954
   126    C    5  S      Val( 2S)     0.96959      -0.22530
   127    C    5  S      Ryd( 4S)     0.00092       1.45680
   128    C    5  S      Ryd( 3S)     0.00010       1.43925
   129    C    5  S      Ryd( 5S)     0.00001      21.30650
   130    C    5  px     Val( 2p)     1.07903      -0.06482
   131    C    5  px     Ryd( 3p)     0.00305       1.17804
   132    C    5  px     Ryd( 4p)     0.00016       2.41101
   133    C    5  py     Val( 2p)     1.05575      -0.09200
   134    C    5  py     Ryd( 3p)     0.00270       0.87255
   135    C    5  py     Ryd( 4p)     0.00027       1.98699
   136    C    5  pz     Val( 2p)     1.07566      -0.08535
   137    C    5  pz     Ryd( 3p)     0.00278       0.91583
   138    C    5  pz     Ryd( 4p)     0.00029       2.10652
   139    C    5  dxy    Ryd( 3d)     0.00091       1.59864
   140    C    5  dxy    Ryd( 4d)     0.00045       3.26712
   141    C    5  dxz    Ryd( 3d)     0.00109       1.65767
   142    C    5  dxz    Ryd( 4d)     0.00049       3.34650
   143    C    5  dyz    Ryd( 3d)     0.00102       1.63859
   144    C    5  dyz    Ryd( 4d)     0.00018       3.36418
   145    C    5  dx2y2  Ryd( 3d)     0.00124       1.67010
   146    C    5  dx2y2  Ryd( 4d)     0.00025       3.36518
   147    C    5  dz2    Ryd( 3d)     0.00067       1.48520
   148    C    5  dz2    Ryd( 4d)     0.00015       3.08486
   149    C    5  f(0)   Ryd( 4f)     0.00011       3.55055
   150    C    5  f(C1)  Ryd( 4f)     0.00007       3.70422
   151    C    5  f(S1)  Ryd( 4f)     0.00024       3.49934
   152    C    5  f(C2)  Ryd( 4f)     0.00016       3.63920
   153    C    5  f(S2)  Ryd( 4f)     0.00013       3.84296
   154    C    5  f(C3)  Ryd( 4f)     0.00011       3.82204
   155    C    5  f(S3)  Ryd( 4f)     0.00008       3.69961
 
   156    C    6  S      Cor( 1S)     1.99911     -10.38915
   157    C    6  S      Val( 2S)     0.91095      -0.19879
   158    C    6  S      Ryd( 4S)     0.00079       1.61666
   159    C    6  S      Ryd( 3S)     0.00007       1.48865
   160    C    6  S      Ryd( 5S)     0.00000      21.36908
[...]
 3367,-0.00825292,-0.01552902,-0.07151090,0.07975806,0.00004218,0.00002
 061,0.00000936,0.00000286,-0.00001065,0.00000217,0.00003508,0.00001191
 ,0.00001023,-0.00000359,0.00000488,0.00000019,0.00007514,0.00001345,0.
 00002673,-0.00010384,-0.00008933,-0.00005358,0.00000890,0.00000278,0.0
 0000092,-0.00001950,0.00001803,-0.00000928,0.00000962,0.00000996,0.000
 00226,-0.00000797,-0.00002039,-0.00000674,0.00062365,-0.00006602,-0.00
 023984,-0.00012935,0.00441665,-0.00236438,-0.00004477,-0.00021981,-0.0
 0038743,0.00016619,-0.00046050,-0.00003325,0.00042441,0.00005702,0.000
 00776,-0.00031787,-0.00008648,0.00033139,0.00005053,0.00024769,-0.0000
 6364,0.00000788,0.00002775,-0.00002660,0.00001351,-0.00000265,-0.00000
 089,-0.00006338,-0.00000542,-0.00004390,0.01776703,-0.00855937,-0.0142
 7240,-0.00014839,-0.00004602,0.00105791,-0.00047725,-0.00079848,0.0004
 1373,0.00003699,0.00005575,-0.00000397,0.00001086,-0.00000739,-0.00002
 734,-0.00001682,-0.00000116,-0.00000379,0.11624292,-0.05163837,-0.1381
 7093,0.00863663,-0.00308566,-0.00730427,-0.12939556,0.05382372,0.14924
 834,0.00000936,0.00000693,0.00000391,-0.00000057,-0.00000506,0.0000002
 1,0.00001269,0.00000250,0.00000571,0.00000064,-0.00000220,0.00000287,0
 .00002319,0.00001119,0.00001103,-0.00002670,-0.00003982,-0.00001606,0.
 00000365,0.00000115,-0.00000128,-0.00000570,0.00000421,-0.00000573,0.0
 0000398,0.00000449,-0.00000137,-0.00000351,-0.00000858,-0.00000530,0.0
 0007350,0.00001705,-0.00022642,0.00117774,0.00013846,0.00052205,0.0002
 9384,-0.00008963,-0.00015790,-0.00000130,-0.00000077,-0.00004606,0.000
 13657,-0.00002894,-0.00003478,-0.00006976,0.00005713,0.00004932,0.0000
 1279,-0.00012611,-0.00013347,0.00000425,-0.00000666,-0.00000807,0.0000
 0584,-0.00000017,-0.00000220,0.00000396,-0.00001749,0.00002596,0.00516
 168,-0.00052967,0.00429353,0.00036978,0.00061125,-0.00045501,0.0009487
 6,-0.00093508,0.00185655,0.00000324,0.00000393,0.00000463,0.00001013,-
 0.00000092,-0.00000774,-0.00000440,0.00000820,0.00000074,-0.23180343,0
 .02342329,-0.12429998,-0.00626734,0.00099436,-0.00302992,-0.01841188,0
 .00133035,-0.01342885,0.24833774,0.00000257,0.00001335,-0.00001756,-0.
 00000702,-0.00000546,-0.00000695,0.00000082,-0.00000712,-0.00000190,0.
 00001164,-0.00000133,0.00000610,-0.00001099,0.00001015,0.00000612,0.00
 000157,0.00002248,0.00001735,0.00000097,-0.00000096,-0.00000045,0.0000
 0474,-0.00000489,-0.00001065,-0.00000304,-0.00000260,0.00000290,0.0000
 0193,-0.00001337,0.00001447,-0.00033626,0.00026284,0.00017715,0.000376
 11,0.00007696,-0.00126941,0.00046327,0.00025926,0.00006795,-0.00029281
 ,0.00011793,0.00019600,-0.00021837,-0.00022273,-0.00019969,0.00042797,
 -0.00004606,-0.00009557,-0.00016447,-0.00020503,-0.00001323,-0.0000048
 9,-0.00001635,-0.00001430,0.00000299,-0.00000032,-0.00000142,0.0000052
 8,-0.00004076,0.00003766,0.01872787,-0.00326377,0.01382414,0.00049410,
 0.00065626,-0.00084574,-0.00125215,-0.00241748,0.00377346,-0.00001603,
 0.00000547,0.00000134,0.00000064,0.00000422,-0.00000429,-0.00000230,-0
 .00000296,-0.00000169,0.02279827,-0.04945514,0.01394501,-0.02469591,0.
 00405487,-0.01593863,0.00850792,-0.00206385,0.00642659,-0.02481767,0.0
 5229447,-0.00002532,0.00000200,0.00001341,0.00001069,0.00000416,0.0000
 0401,-0.00001004,0.00000601,-0.00000151,-0.00000228,-0.00000940,-0.000
 00400,0.00001082,-0.00001084,0.00000638,0.00002181,-0.00000472,-0.0000
 0639,-0.00000409,-0.00000083,-0.00000012,0.00000484,-0.00000267,-0.000
 00563,-0.00000365,-0.00000376,-0.00000256,0.00000164,0.00001361,-0.000
 00437,0.00028091,-0.00067056,-0.00059299,-0.00168743,0.00003260,0.0015
 0937,-0.00009897,-0.00025941,0.00028240,0.00048278,-0.00034601,-0.0003
 9411,0.00037896,0.00031098,0.00028274,-0.00058628,0.00012056,0.0001141
 6,0.00014479,0.00030218,-0.00008607,0.00001562,0.00002743,0.00001265,-
 0.00000287,0.00000140,-0.00000088,0.00005567,0.00007564,0.00014660,-0.
 01970371,0.00302785,-0.01580623,0.00040412,-0.00040249,0.00116982,0.00
 152464,0.00370202,-0.00293072,-0.00000426,-0.00003317,-0.00000265,0.00
 001065,-0.00000494,-0.00000253,0.00000623,0.00001987,0.00000851,-0.122
 85454,0.01410269,-0.12924257,-0.00960552,0.00158969,-0.00718856,0.0161
 3357,-0.00154047,0.01192741,0.13508423,-0.02006870,0.14077642,-0.00000
 493,-0.00001965,-0.00000098,-0.00000964,-0.00000741,0.00001327,-0.0000
 1377,-0.00000023,0.00000327,-0.00001767,-0.00001579,0.00001323,-0.0000
 1342,0.00002206,0.00000785,-0.00000292,0.00002766,-0.00001866,-0.00000
 030,0.00000106,-0.00000815,0.00001015,0.00000701,-0.00001666,-0.000000
 49,-0.00000110,-0.00000492,0.00000401,0.00000549,-0.00001936,-0.000469
 12,0.00154830,0.00129654,-0.00071116,-0.00048675,-0.00069732,0.0009582
 8,-0.00006008,-0.00020335,-0.00019732,0.00002697,0.00110587,-0.0002796
 7,-0.00129278,-0.00107881,-0.00131491,0.00276908,-0.00802193,0.0000123
 0,0.00001304,-0.00000821,-0.00016622,0.00036100,-0.00028008,-0.0000012
 0,0.00000274,-0.00000426,0.00006511,-0.00021048,0.00021798,0.00000436,
 -0.00000784,0.00003230,-0.00000332,0.00001236,-0.00000452,-0.00002295,
 -0.00000950,0.00001517,-0.07947848,0.01058852,-0.01291235,-0.00291822,
 0.01504646,-0.02296964,0.00574548,-0.01557328,0.02330315,-0.00001042,-
 0.00000988,-0.00000324,0.00000964,0.00001099,-0.00000575,0.00001022,0.
 00000788,0.00000341,-0.00000091,0.00000255,0.00000175,0.57311481,-0.00
 010161,-0.00005785,-0.00001638,-0.00000745,0.00000702,0.00002645,-0.00
 005695,-0.00000949,-0.00000525,-0.00001095,-0.00001662,0.00000918,-0.0
 0007458,-0.00000520,-0.00000591,0.00022831,-0.00000905,-0.00005595,-0.
 00001220,0.00000003,-0.00001001,0.00003149,-0.00002128,-0.00002321,-0.
 00001298,-0.00001118,-0.00001056,0.00001636,0.00005561,-0.00001991,-0.
 00059870,-0.00150483,-0.00197807,0.00024579,-0.00040580,0.00091056,-0.
 00032139,-0.00060464,-0.00084415,0.00013359,-0.00049998,0.00075492,-0.
 00043599,-0.00133475,-0.00193975,-0.00175650,0.01550098,-0.01191280,0.
 00000622,0.00004956,-0.00001754,-0.00026502,0.00028870,-0.00022733,-0.
 00002261,0.00000585,-0.00000944,0.00021093,0.00029676,-0.00035576,-0.0
 0012654,-0.00002592,-0.00005510,0.00001511,0.00000049,-0.00005530,0.00
 005112,0.00002578,-0.00000193,0.00939136,-0.11672290,0.05191625,0.0024
 6444,-0.01271439,0.01913141,0.00393903,-0.01140014,0.01652700,0.000022
 41,-0.00001331,-0.00001999,-0.00001156,-0.00000625,0.00001003,0.000020
 00,-0.00000264,-0.00003768,0.00000044,-0.00001006,0.00002717,0.0101527
 3,0.54359874,-0.00002302,-0.00002377,-0.00002480,-0.00000410,0.0000180
 4,0.00000523,-0.00001236,-0.00000424,-0.00000419,-0.00000060,0.0000096
 0,0.00000657,-0.00003240,-0.00002760,-0.00001711,0.00007467,0.00004300
 ,0.00000714,-0.00000247,0.00000182,-0.00000023,-0.00001176,-0.00000471
 ,-0.00000668,-0.00000225,-0.00000294,0.00000030,-0.00000502,0.00002067
 ,0.00000574,-0.00162880,0.00059906,0.00073130,-0.00003963,-0.00094377,
 0.00065536,-0.00020640,0.00012482,0.00010160,0.00024167,-0.00114091,0.
 00012328,0.00211712,0.00100009,0.00036295,-0.00694725,0.00955018,-0.03
 396162,-0.00000369,0.00006164,-0.00002953,-0.00026964,0.00020552,0.000
 01329,-0.00000808,-0.00000053,-0.00000114,0.00027439,0.00028562,-0.000
 21540,0.00001364,0.00005800,-0.00003460,0.00000265,0.00001661,-0.00001
 062,0.00000946,-0.00000128,-0.00000257,-0.01262511,0.05742194,-0.14860
 898,0.00013748,-0.00148230,0.00319738,-0.00138835,0.00514392,-0.006938
 33,0.00002076,-0.00002073,-0.00002165,0.00000262,0.00000247,-0.0000023
 5,0.00000276,0.00000583,-0.00001513,-0.00000162,-0.00000306,0.00000727
 ,-0.01167945,0.05359961,0.50887505,0.00002352,0.00000161,-0.00000506,0
 .00000256,0.00000815,-0.00000184,0.00000661,0.00000255,-0.00000012,-0.
 00000264,0.00000434,0.00000111,0.00000487,-0.00001172,0.00000075,-0.00
 002244,0.00001323,-0.00000072,0.00000090,0.00000058,0.00000185,-0.0000
 0420,0.00000630,-0.00000222,0.00000286,0.00000180,0.00000446,-0.000004
 94,-0.00000132,0.00001064,-0.00018407,0.00007954,0.00028868,-0.0000157
 1,-0.00009683,-0.00005998,0.00011268,0.00007714,0.00006967,-0.00003850
 ,0.00008447,0.00010118,0.00030811,0.00024222,0.00013952,0.00057477,0.0
 0011225,-0.00017623,0.00000137,0.00000445,0.00001005,-0.00010315,0.000
 04647,0.00011966,0.00000027,-0.00000065,0.00000080,0.00005839,0.000026
 29,-0.00007733,-0.00000763,0.00000358,-0.00000643,0.00000584,0.0000055
 7,0.00001319,0.00000578,-0.00001190,-0.00000232,0.00516943,0.00355286,
 -0.00140969,0.00072283,-0.00025574,0.00061045,0.00121692,0.00094878,-0
 .00166124,0.00000401,-0.00000490,0.00000101,-0.00000084,0.00000687,-0.
 00000409,-0.00000095,0.00000052,-0.00000072,0.00000244,0.00000068,0.00
 000207,-0.22814812,-0.12027735,0.04253888,0.24434515,0.00001511,0.0000
 1457,0.00000758,-0.00001006,-0.00000451,-0.00000008,0.00000888,-0.0000
 0451,-0.00000133,0.00000942,0.00000161,-0.00000292,0.00000313,0.000008
 82,-0.00001802,-0.00003729,0.00002598,0.00001258,0.00000089,-0.0000009
 3,0.00000054,-0.00000438,-0.00001102,0.00001394,0.00000010,-0.00000034
 ,-0.00000010,0.00000025,-0.00000764,-0.00000731,0.00001199,0.00039142,
 0.00040792,-0.00028189,-0.00028146,-0.00028577,0.00040828,-0.00002464,
 -0.00003106,0.00007988,0.00024333,0.00032049,-0.00039793,0.00011636,-0
 .00004451,0.00064603,0.00018562,-0.00136073,0.00001686,-0.00000733,-0.
 00000444,0.00017687,-0.00005897,0.00013734,0.00000382,-0.00000187,0.00
 000522,0.00001741,-0.00002967,0.00000943,0.00000904,0.00001288,0.00000
 460,0.00000194,0.00000661,0.00000186,0.00000565,-0.00000695,-0.0000013
 6,-0.01573946,-0.01140836,0.00463857,-0.00006450,0.00024883,-0.0007052
 9,0.00124487,-0.00126271,0.00336939,0.00000480,-0.00001125,-0.00000215
 ,0.00000480,0.00000593,-0.00000337,0.00000233,0.00000580,0.00000031,0.
 00000038,-0.00000134,0.00000287,-0.11979836,-0.12645193,0.02676666,0.1
 3123180,0.13623112,0.00000560,-0.00001440,0.00000165,0.00000856,-0.000
 00430,-0.00000274,0.00001004,0.00001177,0.00000195,-0.00001316,-0.0000
 0002,-0.00000098,0.00001737,0.00000957,0.00002241,-0.00002758,-0.00000
 642,-0.00001416,0.00000449,0.00000151,0.00000262,-0.00000898,0.0000141
 0,-0.00000601,0.00000337,0.00000369,0.00000214,-0.00000243,-0.00000589
 ,-0.00000365,0.00028917,-0.00063911,-0.00046398,0.00035142,0.00033443,
 0.00029550,-0.00051505,0.00009636,0.00010849,-0.00006973,-0.00047291,-
 0.00048229,0.00018583,-0.00011022,0.00041106,0.00110240,0.00081036,0.0
 0200372,-0.00003074,0.00001764,0.00000652,-0.00026965,0.00023633,-0.00
 011618,0.00000678,-0.00000188,0.00000042,-0.00012381,0.00003403,0.0000
 8111,0.00001994,-0.00002612,0.00000080,-0.00000270,-0.00000682,-0.0000
 0064,-0.00001630,0.00000876,0.00000232,0.02262864,0.01528026,-0.007669
 43,-0.00033806,-0.00081503,0.00122416,-0.00130402,0.00334643,-0.004353
 62,-0.00001661,0.00002077,0.00000353,-0.00000285,-0.00000766,0.0000015
 0,-0.00001090,-0.00000712,0.00001025,0.00000127,0.00000272,-0.00000794
 ,0.04126969,0.02595155,-0.05590072,-0.04529536,-0.03351109,0.06083198,
 0.00000140,0.00000678,0.00000128,-0.00000576,0.00000522,0.00000780,-0.
 00001000,-0.00000738,-0.00000181,0.00000611,-0.00000308,0.00000642,-0.
 00002000,-0.00001282,-0.00001100,0.00001904,0.00004234,-0.00001650,-0.
 00000234,-0.00000050,-0.00000317,0.00000984,-0.00000595,-0.00000484,-0
 .00000168,-0.00000180,-0.00000152,0.00000236,0.00000578,-0.00000258,-0
 .00016195,0.00018413,0.00023964,-0.00030170,-0.00047303,-0.00029729,0.
 00048923,-0.00007280,-0.00015256,-0.00002517,0.00039474,0.00045351,-0.
 00012353,-0.00019089,-0.00031029,0.00111382,0.00081272,-0.00079233,0.0
 0001342,0.00000213,-0.00000897,0.00005203,-0.00011923,0.00009384,-0.00
 000582,0.00000147,-0.00000252,0.00005070,0.00014748,-0.00013557,-0.000
 02907,-0.00003685,0.00000178,0.00001003,0.00000011,-0.00001018,0.00001
 835,0.00000178,-0.00000356,-0.00192604,-0.00274637,-0.00332450,-0.0001
 1251,-0.00030896,-0.00000429,0.00020504,0.00029298,0.00027906,0.000009
 63,0.00000662,0.00000610,0.00000002,0.00000183,-0.00000075,0.00000621,
 0.00000039,-0.00000345,-0.00000148,-0.00000533,0.00000739,-0.05895451,
 -0.03100051,-0.04209368,-0.00445832,-0.01454694,-0.02187320,0.05801790
 ,0.00000803,0.00000333,-0.00000107,0.00000360,0.00000860,-0.00000689,-
 0.00000227,-0.00000152,-0.00000062,0.00000388,0.00000057,-0.00000073,-
 0.00000045,-0.00000862,-0.00000459,-0.00000106,0.00001156,0.00003685,-
 0.00000186,-0.00000061,0.00000099,0.00000154,0.00000103,0.00000469,0.0
 0000065,-0.00000095,0.00000072,-0.00000067,-0.00000054,0.00001169,-0.0
 0006756,0.00057279,0.00034202,-0.00013684,0.00022082,-0.00011764,0.000
 00642,0.00006129,0.00013092,0.00010922,0.00016607,-0.00020572,0.000296
 24,0.00057722,0.00032264,0.00025343,-0.00262496,0.00211127,0.00000069,
 -0.00003172,0.00001532,0.00009707,-0.00016092,0.00007212,-0.00000102,0
 .00000112,0.00000045,-0.00008157,-0.00016624,0.00012351,0.00001838,0.0
 0002185,0.00002561,-0.00000426,-0.00000099,0.00001087,-0.00000906,-0.0
 0000797,0.00000140,0.00449532,0.01179168,0.01798299,-0.00002303,0.0008
 3870,-0.00096860,-0.00030823,0.00084137,-0.00094107,0.00000036,-0.0000
 0820,0.00000509,-0.00000067,0.00000271,0.00000057,0.00000417,0.0000006
 8,-0.00000335,-0.00000181,0.00000316,-0.00000270,-0.03122298,-0.137918
 73,-0.12483466,-0.00170487,-0.01005884,-0.01323233,0.03366446,0.147156
 18,-0.00008171,-0.00002632,-0.00000706,-0.00000165,0.00000979,0.000003
 79,-0.00004545,-0.00001158,-0.00000728,0.00000529,-0.00001320,0.000004
 87,-0.00005986,-0.00001008,-0.00001667,0.00016752,-0.00000497,-0.00000
 094,-0.00001074,-0.00000241,-0.00000453,0.00002493,-0.00001699,-0.0000
 0246,-0.00001048,-0.00001040,-0.00000704,0.00001229,0.00003099,-0.0000
 0267,-0.00047543,-0.00021538,-0.00035917,0.00002752,-0.00013444,0.0003
 3671,-0.00018473,-0.00019337,-0.00023433,0.00011478,-0.00033264,0.0001
 2125,0.00030290,-0.00015728,-0.00043965,-0.00066349,0.00461297,-0.0029
 2083,-0.00000385,0.00002272,-0.00003537,-0.00011170,0.00014717,-0.0000
 6527,-0.00001711,0.00000499,-0.00000412,0.00008892,0.00007786,-0.00006
 024,-0.00006978,0.00002091,-0.00002278,0.00001028,-0.00000965,-0.00003
 435,0.00002364,0.00000799,0.00000227,-0.00489509,-0.01565466,-0.020345
 77,-0.00035958,-0.00012597,0.00101306,0.00070223,-0.00033606,0.0007257
 3,0.00002762,-0.00003413,-0.00000898,-0.00001002,-0.00000077,0.0000119
 1,0.00002319,0.00000295,-0.00003517,-0.00000485,-0.00000247,0.00001342
 ,-0.04205473,-0.12374736,-0.21549839,0.00085450,0.00430225,0.00596884,
 0.04727781,0.13367502,0.23531866,0.00000185,0.00001621,0.00000760,-0.0
 0000732,-0.00001138,0.00000372,0.00000909,-0.00000333,-0.00000020,0.00
 000980,-0.00000160,-0.00000613,0.00000966,0.00001887,-0.00000569,-0.00
 002874,-0.00000900,-0.00001754,0.00000045,-0.00000124,-0.00000034,0.00
 000077,-0.00000993,0.00001050,-0.00000152,-0.00000082,-0.00000136,0.00
 000157,-0.00000643,-0.00001172,0.00022104,-0.00028220,-0.00004260,-0.0
 0016221,-0.00025714,-0.00022906,0.00024280,-0.00006612,-0.00013158,-0.
 00001828,0.00021414,0.00019570,-0.00046139,-0.00026854,-0.00026424,0.0
 0037268,0.00024875,0.00076418,0.00001006,-0.00000006,-0.00000864,0.000
 13184,-0.00002129,0.00005691,0.00000453,-0.00000090,0.00000348,-0.0000
 6203,0.00005176,-0.00011296,-0.00001155,-0.00001767,-0.00000984,0.0000
 0037,-0.00000151,-0.00000928,0.00001851,0.00000914,-0.00000458,-0.0033
 3869,0.00235587,-0.00001905,0.00143038,0.00026445,-0.00062419,0.000674
 46,-0.00015276,-0.00043371,0.00000531,0.00001233,0.00000120,-0.0000006
 8,-0.00000293,-0.00000067,-0.00000045,-0.00000096,0.00000354,0.0000012
 1,-0.00000467,0.00000579,-0.20719469,0.12816358,0.03154959,-0.01957779
 ,0.01697628,0.00401655,0.00611476,-0.00539521,-0.00060316,0.22160421,-
 0.00000855,-0.00000129,0.00000091,0.00000302,0.00000516,-0.00000600,-0
 .00000212,0.00000023,-0.00000050,-0.00000018,0.00000739,0.00000056,-0.
 00000524,-0.00001959,-0.00000316,0.00001233,0.00000784,0.00002404,0.00
 000131,0.00000083,0.00000196,-0.00000816,0.00000262,-0.00000123,0.0000
 0007,0.00000102,0.00000014,-0.00000165,0.00000106,0.00000288,0.0003422
 7,0.00011678,-0.00020302,0.00009996,0.00025900,0.00033681,-0.00039266,
 0.00003053,0.00013540,0.00007758,-0.00030306,-0.00037306,0.00023685,0.
 00040159,0.00037834,-0.00118565,0.00025569,-0.00098035,-0.00001944,-0.
 00000291,0.00000167,-0.00002711,-0.00002819,0.00001203,-0.00000159,-0.
 00000131,-0.00000064,-0.00010646,-0.00004923,0.00019536,0.00004094,0.0
 0002822,0.00001944,-0.00000944,-0.00000233,-0.00000164,-0.00001154,0.0
 0000931,-0.00000252,0.01510120,-0.01285254,-0.00203059,-0.00001689,-0.
 00116663,0.00359281,-0.00027011,0.00025796,-0.00061247,-0.00000436,-0.
 00000365,-0.00000106,0.00000482,-0.00000792,0.00000546,-0.00000370,0.0
 0000119,0.00000167,-0.00000473,0.00000014,-0.00000804,0.12811020,-0.15
 008258,-0.02644462,-0.01409676,0.01213538,0.00268105,0.01396150,-0.011
 28992,-0.00187549,-0.14181570,0.16228923,0.00002539,0.00001325,0.00000
 246,-0.00000375,-0.00001052,0.00000352,0.00001410,0.00000159,0.0000036
 0,-0.00000029,-0.00000198,-0.00000111,0.00002187,0.00001835,0.00000944
 ,-0.00005837,-0.00001834,-0.00001639,0.00000297,-0.00000017,-0.0000010
 2,0.00000039,0.00000451,-0.00000030,0.00000268,0.00000303,0.00000154,-
 0.00000315,-0.00001141,-0.00000497,-0.00008424,0.00002523,0.00051281,-
 0.00015422,-0.00040843,-0.00040272,0.00046746,0.00006132,-0.00004987,-
 0.00013493,0.00029820,0.00035174,-0.00035464,-0.00054149,-0.00020175,-
 0.00030108,0.00085863,0.00208158,0.00002862,0.00001229,0.00000064,0.00
 009848,0.00003658,-0.00000131,0.00000531,-0.00000026,-0.00000029,0.000
 26921,0.00020525,-0.00016403,-0.00000634,-0.00000062,-0.00002203,-0.00
 000087,0.00001011,0.00001679,0.00001553,-0.00001009,-0.00000335,-0.022
 62918,0.01779296,0.00225878,-0.00097086,0.00346193,-0.00465077,0.00050
 496,-0.00088047,0.00126823,0.00000251,0.00001780,-0.00000061,0.0000018
 3,0.00000441,-0.00000886,-0.00000545,-0.00000073,0.00001389,0.00000460
 ,-0.00000326,0.00000524,0.03270888,-0.02751474,-0.05279843,0.00393488,
 -0.00402201,-0.00195863,0.02067996,-0.01455479,-0.00340744,-0.03408223
 ,0.02515386,0.05716360\\-0.00001617,-0.00000679,-0.00000557,0.00001334
 ,0.00000918,0.00000560,-0.00002016,-0.00000507,-0.00000437,0.00001696,
 -0.00000148,0.00000100,-0.00001784,-0.00000245,-0.00000206,0.00002709,
 0.00000749,0.00000613,0.00000218,0.00000054,0.00000047,0.00000156,0.00
 000489,0.00000212,0.00000330,-0.00000606,-0.00000328,0.00000445,-0.000
 00329,-0.00000080,-0.00001482,-0.00000402,-0.00000343,0.00001552,-0.00
 000527,-0.00000671,-0.00000993,0.00001030,0.00001848,-0.00002121,-0.00
 000568,-0.00000475,0.00000458,-0.00001180,-0.00001961,0.00000689,0.000
 01136,0.00001185,0.00000068,-0.00000628,-0.00000747,-0.00000542,0.0000
 0497,0.00000639,-0.00000163,0.00000658,0.00000367,0.00000811,0.0000021
 9,0.00000182,0.00000707,0.00001751,-0.00002806,-0.00000424,-0.00000411
 ,0.00000102,0.00000285,-0.00000030,0.00000591,0.00000277,-0.00001478,0
 .00003007,-0.00000486,0.00000168,-0.00000305,0.00000444,0.00000222,-0.
 00000426,-0.00000191,-0.00002910,0.00002917,-0.00000010,0.00000835,-0.
 00000532,-0.00000089,0.00000523,-0.00000359,-0.00000112,0.00000777,-0.
 00000653,-0.00000393,0.00002749,-0.00003028,0.00000027,-0.00000799,0.0
 0000632,0.00000038,-0.00000537,0.00000345,0.00000183,-0.00000791,0.000
 00566\\\@
 The archive entry for this job was punched.


 THERE IS AN OLD, OLD RECIPE IN MAINE FOR STEWING COOT. PLACE THE
 BIRD IN A KETTLE OF WATER WITH A RED BUILDING BRICK FREE OF MORTAR AND
 BLEMISHES. PARBOIL THE COOT AND BRICK TOGETHER FOR THREE HOURS.
 POUR OFF THE WATER, REFILL THE KETTLE, AND AGAIN PARBOIL FOR THREE HOURS.
 ONCE AGAIN POUR OFF THE WATER, FOR THE LAST TIME ADD FRESH WATER,
 AND LET THE COOT AND BRICK SIMMER TOGETHER OVERNIGHT. IN THE MORNING,
 THROW AWAY THE COOT AND EAT THE BRICK.
 Job cpu time:       1 days 15 hours 45 minutes 32.6 seconds.
 Elapsed time:       0 days  1 hours 15 minutes 28.4 seconds.
 File lengths (MBytes):  RWF=    875 Int=      0 D2E=      0 Chk=     30 Scr=      1
 Normal termination of Gaussian 16 at Wed Nov  8 11:53:41 2023.
