 Entering Gaussian System, Link 0=g16
 Input=ph_4me_2_1_m062x.com
 Output=ph_4me_2_1_m062x.log
 Initial command:
 /arc/software/Gaussian/g16.c01/l1.exe "/tmp/slurm/41768/Gau-24902.inp" -scrdir="/tmp/slurm/41768/"
 Entering Link 1 = /arc/software/Gaussian/g16.c01/l1.exe PID=     24903.
  
 Copyright (c) 1988-2019, Gaussian, Inc.  All Rights Reserved.
  
 This is part of the Gaussian(R) 16 program.  It is based on
 the Gaussian(R) 09 system (copyright 2009, Gaussian, Inc.),
 the Gaussian(R) 03 system (copyright 2003, Gaussian, Inc.),
 the Gaussian(R) 98 system (copyright 1998, Gaussian, Inc.),
 the Gaussian(R) 94 system (copyright 1995, Gaussian, Inc.),
 the Gaussian 92(TM) system (copyright 1992, Gaussian, Inc.),
 the Gaussian 90(TM) system (copyright 1990, Gaussian, Inc.),
 the Gaussian 88(TM) system (copyright 1988, Gaussian, Inc.),
 the Gaussian 86(TM) system (copyright 1986, Carnegie Mellon
 University), and the Gaussian 82(TM) system (copyright 1983,
 Carnegie Mellon University). Gaussian is a federally registered
 trademark of Gaussian, Inc.
  
 This software contains proprietary and confidential information,
 including trade secrets, belonging to Gaussian, Inc.
  
 This software is provided under written license and may be
 used, copied, transmitted, or stored only in accord with that
 written license.
  
 The following legend is applicable only to US Government
 contracts under FAR:
  
                    RESTRICTED RIGHTS LEGEND
  
 Use, reproduction and disclosure by the US Government is
 subject to restrictions as set forth in subparagraphs (a)
 and (c) of the Commercial Computer Software - Restricted
 Rights clause in FAR 52.227-19.
  
 Gaussian, Inc.
 340 Quinnipiac St., Bldg. 40, Wallingford CT 06492
  
  
 ---------------------------------------------------------------
 Warning -- This program may not be used in any manner that
 competes with the business of Gaussian, Inc. or will provide
 assistance to any competitor of Gaussian, Inc.  The licensee
 of this program is prohibited from giving any competitor of
 Gaussian, Inc. access to this program.  By using this program,
 the user acknowledges that Gaussian, Inc. is engaged in the
 business of creating and licensing software in the field of
 computational chemistry and represents and warrants to the
 licensee that it is not a competitor of Gaussian, Inc. and that
 it will not use this program in any manner prohibited above.
 ---------------------------------------------------------------
  

 Cite this work as:
 Gaussian 16, Revision C.01,
 M. J. Frisch, G. W. Trucks, H. B. Schlegel, G. E. Scuseria, 
 M. A. Robb, J. R. Cheeseman, G. Scalmani, V. Barone, 
 G. A. Petersson, H. Nakatsuji, X. Li, M. Caricato, A. V. Marenich, 
 J. Bloino, B. G. Janesko, R. Gomperts, B. Mennucci, H. P. Hratchian, 
 J. V. Ortiz, A. F. Izmaylov, J. L. Sonnenberg, D. Williams-Young, 
 F. Ding, F. Lipparini, F. Egidi, J. Goings, B. Peng, A. Petrone, 
 T. Henderson, D. Ranasinghe, V. G. Zakrzewski, J. Gao, N. Rega, 
 G. Zheng, W. Liang, M. Hada, M. Ehara, K. Toyota, R. Fukuda, 
 J. Hasegawa, M. Ishida, T. Nakajima, Y. Honda, O. Kitao, H. Nakai, 
 T. Vreven, K. Throssell, J. A. Montgomery, Jr., J. E. Peralta, 
 F. Ogliaro, M. J. Bearpark, J. J. Heyd, E. N. Brothers, K. N. Kudin, 
 V. N. Staroverov, T. A. Keith, R. Kobayashi, J. Normand, 
 K. Raghavachari, A. P. Rendell, J. C. Burant, S. S. Iyengar, 
 J. Tomasi, M. Cossi, J. M. Millam, M. Klene, C. Adamo, R. Cammi, 
 J. W. Ochterski, R. L. Martin, K. Morokuma, O. Farkas, 
 J. B. Foresman, and D. J. Fox, Gaussian, Inc., Wallingford CT, 2019.
 
 ******************************************
 Gaussian 16:  ES64L-G16RevC.01  3-Jul-2019
                14-Nov-2023 
 ******************************************
 %nprocshared=32
 Will use up to   32 processors via shared memory.
 %mem=8000MB
 %chk=ph_4me_2_1_m062x.chk
 -----------------------------------------
 # opt freq=noraman m062x def2tzvp pop=nbo
 -----------------------------------------
 1/18=20,19=15,26=3,38=1/1,3;
 2/9=110,12=2,17=6,18=5,40=1/2;
 3/5=44,7=101,11=2,25=1,30=1,71=1,74=-55/1,2,3;
 4//1;
 5/5=2,38=5/2;
 6/7=2,8=2,9=2,10=2,28=1,40=1/1,7;
 7//1,2,3,16;
 1/18=20,19=15,26=3/3(2);
 2/9=110/2;
 99//99;
 2/9=110/2;
 3/5=44,7=101,11=2,25=1,30=1,71=1,74=-55/1,2,3;
 4/5=5,16=3,69=1/1;
 5/5=2,38=5/2;
 7//1,2,3,16;
 1/18=20,19=15,26=3/3(-5);
 2/9=110/2;
 6/7=2,8=2,9=2,10=2,19=2,28=1,40=1/1,7;
 99/9=1/99;
 ------------
 Structure697
 ------------
 Symbolic Z-matrix:
 Charge =  0 Multiplicity = 1
 C                    -4.6743   -1.5784    2.6356 
 C                    -4.2534   -0.4623    3.3546 
 C                    -3.9666    0.7223    2.6821 
 C                    -4.0985    0.7979    1.2984 
 C                    -4.5213   -0.3208    0.5844 
 C                    -4.8144   -1.5231    1.2422 
 H                    -3.6393    1.5892    3.2381 
 H                    -4.6072   -0.2549   -0.4902 
 H                    -4.1531   -0.5156    4.429 
 H                    -4.907    -2.4883    3.1689 
 C                    -6.1192   -4.9718   -0.9662 
 C                    -6.5573   -3.701    -1.3354 
 C                    -6.1334   -2.5852   -0.6179 
 C                    -5.2666   -2.721     0.4741 
 C                    -4.8322   -4.0045    0.8297 
 C                    -5.252    -5.1234    0.1146 
 H                    -6.4943   -1.6093   -0.9069 
 H                    -4.1515   -4.1376    1.6575 
 H                    -3.8715    1.7181    0.78 
 C                    -6.5675   -6.1874   -1.755 
 H                    -5.7995   -6.9617   -1.7502 
 H                    -7.4848   -6.5996   -1.334 
 H                    -6.7445   -5.9316   -2.8003 
 H                    -7.2284   -3.5743   -2.1723 
 H                    -4.9007   -6.1035    0.4023 
 

 GradGradGradGradGradGradGradGradGradGradGradGradGradGradGradGradGradGrad
 Berny optimization.
 Initialization pass.
                           ----------------------------
                           !    Initial Parameters    !
                           ! (Angstroms and Degrees)  !
 --------------------------                            --------------------------
 ! Name  Definition              Value          Derivative Info.                !
 --------------------------------------------------------------------------------
 ! R1    R(1,2)                  1.3928         estimate D2E/DX2                !
 ! R2    R(1,6)                  1.4015         estimate D2E/DX2                !
 ! R3    R(1,10)                 1.08           estimate D2E/DX2                !
 ! R4    R(2,3)                  1.392          estimate D2E/DX2                !
 ! R5    R(2,9)                  1.0804         estimate D2E/DX2                !
 ! R6    R(3,4)                  1.392          estimate D2E/DX2                !
 ! R7    R(3,7)                  1.0806         estimate D2E/DX2                !
 ! R8    R(4,5)                  1.3929         estimate D2E/DX2                !
 ! R9    R(4,19)                 1.0803         estimate D2E/DX2                !
 ! R10   R(5,6)                  1.4015         estimate D2E/DX2                !
 ! R11   R(5,8)                  1.08           estimate D2E/DX2                !
 ! R12   R(6,14)                 1.4931         estimate D2E/DX2                !
 ! R13   R(11,12)                1.394          estimate D2E/DX2                !
 ! R14   R(11,16)                1.394          estimate D2E/DX2                !
 ! R15   R(11,20)                1.5169         estimate D2E/DX2                !
 ! R16   R(12,13)                1.3927         estimate D2E/DX2                !
 ! R17   R(12,24)                1.0802         estimate D2E/DX2                !
 ! R18   R(13,14)                1.4008         estimate D2E/DX2                !
 ! R19   R(13,17)                1.0799         estimate D2E/DX2                !
 ! R20   R(14,15)                1.4009         estimate D2E/DX2                !
 ! R21   R(15,16)                1.3927         estimate D2E/DX2                !
 ! R22   R(15,18)                1.08           estimate D2E/DX2                !
 ! R23   R(16,25)                1.0802         estimate D2E/DX2                !
 ! R24   R(20,21)                1.0906         estimate D2E/DX2                !
 ! R25   R(20,22)                1.0902         estimate D2E/DX2                !
 ! R26   R(20,23)                1.0906         estimate D2E/DX2                !
 ! A1    A(2,1,6)              120.7864         estimate D2E/DX2                !
 ! A2    A(2,1,10)             119.0336         estimate D2E/DX2                !
 ! A3    A(6,1,10)             120.1738         estimate D2E/DX2                !
 ! A4    A(1,2,3)              119.6567         estimate D2E/DX2                !
 ! A5    A(1,2,9)              120.1258         estimate D2E/DX2                !
 ! A6    A(3,2,9)              120.2173         estimate D2E/DX2                !
 ! A7    A(2,3,4)              120.458          estimate D2E/DX2                !
 ! A8    A(2,3,7)              119.769          estimate D2E/DX2                !
 ! A9    A(4,3,7)              119.773          estimate D2E/DX2                !
 ! A10   A(3,4,5)              119.6495         estimate D2E/DX2                !
 ! A11   A(3,4,19)             120.2218         estimate D2E/DX2                !
 ! A12   A(5,4,19)             120.1284         estimate D2E/DX2                !
 ! A13   A(4,5,6)              120.7908         estimate D2E/DX2                !
 ! A14   A(4,5,8)              119.0236         estimate D2E/DX2                !
 ! A15   A(6,5,8)              120.1794         estimate D2E/DX2                !
 ! A16   A(1,6,5)              118.6585         estimate D2E/DX2                !
 ! A17   A(1,6,14)             120.668          estimate D2E/DX2                !
 ! A18   A(5,6,14)             120.6735         estimate D2E/DX2                !
 ! A19   A(12,11,16)           120.0009         estimate D2E/DX2                !
 ! A20   A(12,11,20)           119.9977         estimate D2E/DX2                !
 ! A21   A(16,11,20)           119.9934         estimate D2E/DX2                !
 ! A22   A(11,12,13)           119.8868         estimate D2E/DX2                !
 ! A23   A(11,12,24)           120.4896         estimate D2E/DX2                !
 ! A24   A(13,12,24)           119.6228         estimate D2E/DX2                !
 ! A25   A(12,13,14)           120.8173         estimate D2E/DX2                !
 ! A26   A(12,13,17)           118.9762         estimate D2E/DX2                !
 ! A27   A(14,13,17)           120.201          estimate D2E/DX2                !
 ! A28   A(6,14,13)            120.707          estimate D2E/DX2                !
 ! A29   A(6,14,15)            120.7006         estimate D2E/DX2                !
 ! A30   A(13,14,15)           118.5925         estimate D2E/DX2                !
 ! A31   A(14,15,16)           120.8158         estimate D2E/DX2                !
 ! A32   A(14,15,18)           120.1941         estimate D2E/DX2                !
 ! A33   A(16,15,18)           118.9835         estimate D2E/DX2                !
 ! A34   A(11,16,15)           119.8854         estimate D2E/DX2                !
 ! A35   A(11,16,25)           120.4983         estimate D2E/DX2                !
 ! A36   A(15,16,25)           119.6163         estimate D2E/DX2                !
 ! A37   A(11,20,21)           111.0119         estimate D2E/DX2                !
 ! A38   A(11,20,22)           110.5395         estimate D2E/DX2                !
 ! A39   A(11,20,23)           111.0032         estimate D2E/DX2                !
 ! A40   A(21,20,22)           108.8066         estimate D2E/DX2                !
 ! A41   A(21,20,23)           106.5609         estimate D2E/DX2                !
 ! A42   A(22,20,23)           108.7988         estimate D2E/DX2                !
 ! D1    D(6,1,2,3)             -0.0795         estimate D2E/DX2                !
 ! D2    D(6,1,2,9)            179.7388         estimate D2E/DX2                !
 ! D3    D(10,1,2,3)          -179.1764         estimate D2E/DX2                !
 ! D4    D(10,1,2,9)             0.6419         estimate D2E/DX2                !
 ! D5    D(2,1,6,5)              0.0452         estimate D2E/DX2                !
 ! D6    D(2,1,6,14)          -179.9636         estimate D2E/DX2                !
 ! D7    D(10,1,6,5)           179.1318         estimate D2E/DX2                !
 ! D8    D(10,1,6,14)           -0.8771         estimate D2E/DX2                !
 ! D9    D(1,2,3,4)              0.038          estimate D2E/DX2                !
 ! D10   D(1,2,3,7)           -179.9621         estimate D2E/DX2                !
 ! D11   D(9,2,3,4)           -179.7801         estimate D2E/DX2                !
 ! D12   D(9,2,3,7)              0.2197         estimate D2E/DX2                !
 ! D13   D(2,3,4,5)              0.037          estimate D2E/DX2                !
 ! D14   D(2,3,4,19)          -179.7803         estimate D2E/DX2                !
 ! D15   D(7,3,4,5)           -179.9629         estimate D2E/DX2                !
 ! D16   D(7,3,4,19)             0.2199         estimate D2E/DX2                !
 ! D17   D(3,4,5,6)             -0.0717         estimate D2E/DX2                !
 ! D18   D(3,4,5,8)           -179.1733         estimate D2E/DX2                !
 ! D19   D(19,4,5,6)           179.7457         estimate D2E/DX2                !
 ! D20   D(19,4,5,8)             0.6441         estimate D2E/DX2                !
 ! D21   D(4,5,6,1)              0.0308         estimate D2E/DX2                !
 ! D22   D(4,5,6,14)          -179.9604         estimate D2E/DX2                !
 ! D23   D(8,5,6,1)            179.1221         estimate D2E/DX2                !
 ! D24   D(8,5,6,14)            -0.8691         estimate D2E/DX2                !
 ! D25   D(1,6,14,13)          141.6857         estimate D2E/DX2                !
 ! D26   D(1,6,14,15)          -38.3603         estimate D2E/DX2                !
 ! D27   D(5,6,14,13)          -38.3233         estimate D2E/DX2                !
 ! D28   D(5,6,14,15)          141.6308         estimate D2E/DX2                !
 ! D29   D(16,11,12,13)         -0.3802         estimate D2E/DX2                !
 ! D30   D(16,11,12,24)        179.9284         estimate D2E/DX2                !
 ! D31   D(20,11,12,13)       -179.3467         estimate D2E/DX2                !
 ! D32   D(20,11,12,24)          0.9619         estimate D2E/DX2                !
 ! D33   D(12,11,16,15)          0.449          estimate D2E/DX2                !
 ! D34   D(12,11,16,25)       -179.4653         estimate D2E/DX2                !
 ! D35   D(20,11,16,15)        179.4156         estimate D2E/DX2                !
 ! D36   D(20,11,16,25)         -0.4988         estimate D2E/DX2                !
 ! D37   D(12,11,20,21)        148.6545         estimate D2E/DX2                !
 ! D38   D(12,11,20,22)        -90.5022         estimate D2E/DX2                !
 ! D39   D(12,11,20,23)         30.3255         estimate D2E/DX2                !
 ! D40   D(16,11,20,21)        -30.3121         estimate D2E/DX2                !
 ! D41   D(16,11,20,22)         90.5312         estimate D2E/DX2                !
 ! D42   D(16,11,20,23)       -148.6411         estimate D2E/DX2                !
 ! D43   D(11,12,13,14)          0.1114         estimate D2E/DX2                !
 ! D44   D(11,12,13,17)       -179.0358         estimate D2E/DX2                !
 ! D45   D(24,12,13,14)        179.8056         estimate D2E/DX2                !
 ! D46   D(24,12,13,17)          0.6584         estimate D2E/DX2                !
 ! D47   D(12,13,14,6)        -179.9586         estimate D2E/DX2                !
 ! D48   D(12,13,14,15)          0.0865         estimate D2E/DX2                !
 ! D49   D(17,13,14,6)          -0.8218         estimate D2E/DX2                !
 ! D50   D(17,13,14,15)        179.2232         estimate D2E/DX2                !
 ! D51   D(6,14,15,16)        -179.9718         estimate D2E/DX2                !
 ! D52   D(6,14,15,18)          -0.915          estimate D2E/DX2                !
 ! D53   D(13,14,15,16)         -0.0168         estimate D2E/DX2                !
 ! D54   D(13,14,15,18)        179.04           estimate D2E/DX2                !
 ! D55   D(14,15,16,11)         -0.2504         estimate D2E/DX2                !
 ! D56   D(14,15,16,25)        179.6647         estimate D2E/DX2                !
 ! D57   D(18,15,16,11)       -179.3185         estimate D2E/DX2                !
 ! D58   D(18,15,16,25)          0.5966         estimate D2E/DX2                !
 --------------------------------------------------------------------------------
 Trust Radius=3.00D-01 FncErr=1.00D-07 GrdErr=1.00D-06 EigMax=2.50D+02 EigMin=1.00D-04
 Number of steps in this run=    136 maximum allowed number of steps=    150.
 GradGradGradGradGradGradGradGradGradGradGradGradGradGradGradGradGradGrad

                          Input orientation:                          
 ---------------------------------------------------------------------
 Center     Atomic      Atomic             Coordinates (Angstroms)
 Number     Number       Type             X           Y           Z
 ---------------------------------------------------------------------
      1          6           0       -4.674300   -1.578400    2.635600
      2          6           0       -4.253400   -0.462300    3.354600
      3          6           0       -3.966600    0.722300    2.682100
      4          6           0       -4.098500    0.797900    1.298400
      5          6           0       -4.521300   -0.320800    0.584400
      6          6           0       -4.814400   -1.523100    1.242200
      7          1           0       -3.639300    1.589200    3.238100
      8          1           0       -4.607200   -0.254900   -0.490200
      9          1           0       -4.153100   -0.515600    4.429000
     10          1           0       -4.907000   -2.488300    3.168900
     11          6           0       -6.119200   -4.971800   -0.966200
     12          6           0       -6.557300   -3.701000   -1.335400
     13          6           0       -6.133400   -2.585200   -0.617900
     14          6           0       -5.266600   -2.721000    0.474100
     15          6           0       -4.832200   -4.004500    0.829700
     16          6           0       -5.252000   -5.123400    0.114600
     17          1           0       -6.494300   -1.609300   -0.906900
     18          1           0       -4.151500   -4.137600    1.657500
     19          1           0       -3.871500    1.718100    0.780000
     20          6           0       -6.567500   -6.187400   -1.755000
     21          1           0       -5.799500   -6.961700   -1.750200
     22          1           0       -7.484800   -6.599600   -1.334000
     23          1           0       -6.744500   -5.931600   -2.800300
     24          1           0       -7.228400   -3.574300   -2.172300
     25          1           0       -4.900700   -6.103500    0.402300
 ---------------------------------------------------------------------
                    Distance matrix (angstroms):
                    1          2          3          4          5
     1  C    0.000000
     2  C    1.392766   0.000000
     3  C    2.407534   1.392044   0.000000
     4  C    2.786835   2.416621   1.392027   0.000000
     5  C    2.410890   2.786719   2.407508   1.392855   0.000000
     6  C    1.401517   2.429455   2.798910   2.429550   1.401476
     7  H    3.386432   2.144608   1.080637   2.144634   3.386465
     8  H    3.395111   3.866610   3.380647   2.136879   1.080040
     9  H    2.148832   1.080387   2.149148   3.395426   3.867101
    10  H    1.080035   2.136903   3.380722   3.866724   3.395064
    11  C    5.155178   6.518137   7.096940   6.519285   5.156495
    12  C    4.880570   6.147620   6.512881   5.763914   4.388243
    13  C    3.705116   4.880764   5.150202   4.388438   3.028514
    14  C    2.515638   3.798102   4.292037   3.798234   2.515671
    15  C    3.028559   4.388315   5.150076   4.880680   3.704926
    16  C    4.388189   5.763736   6.512796   6.147661   4.880533
    17  H    3.982796   4.949507   4.970568   4.049422   2.788716
    18  H    2.789176   4.049489   4.970173   4.948830   3.981992
    19  H    3.867124   3.395373   2.149104   1.080294   2.148863
    20  C    6.641119   8.014976   8.613739   8.013341   6.639030
    21  H    7.034290   8.407830   9.058072   8.508746   7.154419
    22  H    6.990643   8.372059   9.061844   8.550998   7.203188
    23  H    7.265335   8.602419   9.058025   8.311849   6.919530
    24  H    5.798530   7.005840   7.257087   6.399857   5.051044
    25  H    5.051279   6.399860   7.256830   7.005415   5.797993
                    6          7          8          9         10
     6  C    0.000000
     7  H    3.879547   0.000000
     8  H    2.156959   4.270569   0.000000
     9  H    3.407062   2.472330   4.946989   0.000000
    10  H    2.156933   4.270581   4.297321   2.459220   0.000000
    11  C    4.298030   8.177577   4.976130   7.268525   4.973555
    12  C    3.798022   7.577456   4.048809   7.011081   4.948015
    13  C    2.515510   6.206036   2.788529   5.803105   3.981620
    14  C    1.493127   5.372674   2.728797   4.663143   2.728628
    15  C    2.515516   6.205875   3.981490   5.058514   2.788604
    16  C    3.798044   7.577338   4.948115   6.407297   4.048645
    17  H    2.729125   5.963426   2.359912   5.928678   4.461424
    18  H    2.729015   5.962959   4.460453   4.560713   2.361207
    19  H    3.407061   2.472405   2.459144   4.287647   4.947010
    20  C    5.814831   9.694375   6.374720   8.731581   6.378510
    21  H    6.285161  10.132497   6.927506   9.079942   6.708607
    22  H    6.287980  10.136489   7.017678   9.018173   6.619966
    23  H    6.285059  10.132471   6.490727   9.397403   7.131905
    24  H    4.657642   8.295529   4.551765   7.898752   5.924248
    25  H    4.657568   8.295211   5.923582   6.928048   4.552339
                   11         12         13         14         15
    11  C    0.000000
    12  C    1.393977   0.000000
    13  C    2.411923   1.392662   0.000000
    14  C    2.804905   2.429114   1.400803   0.000000
    15  C    2.411907   2.784913   2.408958   1.400902   0.000000
    16  C    1.393968   2.414442   2.784938   2.429193   1.392673
    17  H    3.383877   2.136069   1.079885   2.156452   3.393426
    18  H    3.384012   3.864705   3.393423   2.156534   1.079963
    19  H    7.270222   6.407424   5.058528   4.663206   5.802893
    20  C    1.516859   2.521578   3.802274   4.321708   3.802235
    21  H    2.162537   3.373201   4.532918   4.818198   4.041854
    22  H    2.156356   3.043376   4.295869   4.820080   4.295629
    23  H    2.162438   2.675173   4.041622   4.818074   4.532936
    24  H    2.153604   1.080199   2.143246   3.402971   3.865081
    25  H    2.153666   3.396459   3.865073   3.402990   2.143167
                   16         17         18         19         20
    16  C    0.000000
    17  H    3.864670   0.000000
    18  H    2.136222   4.296180   0.000000
    19  H    7.011038   4.560296   5.927700   0.000000
    20  C    2.521515   4.656569   4.656597   8.728778   0.000000
    21  H    2.675179   5.462791   4.722697   9.244351   1.090590
    22  H    3.043518   5.105546   5.110910   9.311770   1.090224
    23  H    3.373038   4.725446   5.460226   8.921356   1.090603
    24  H    3.396436   2.449768   4.944895   6.927796   2.727493
    25  H    1.080175   4.944836   2.449814   7.898059   2.727491
                   21         22         23         24         25
    21  H    0.000000
    22  H    1.773295   0.000000
    23  H    1.748382   1.773218   0.000000
    24  H    3.700595   3.149750   2.487048   0.000000
    25  H    2.485479   3.152527   3.699432   4.294602   0.000000
 Stoichiometry    C13H12
 Framework group  C1[X(C13H12)]
 Deg. of freedom    69
 Full point group                 C1      NOp   1
 Largest Abelian subgroup         C1      NOp   1
 Largest concise Abelian subgroup C1      NOp   1
                         Standard orientation:                         
 ---------------------------------------------------------------------
 Center     Atomic      Atomic             Coordinates (Angstroms)
 Number     Number       Type             X           Y           Z
 ---------------------------------------------------------------------
      1          6           0        1.930722   -1.138587    0.395228
      2          6           0        3.323487   -1.140665    0.395870
      3          6           0        4.014161    0.000665   -0.001775
      4          6           0        3.322447    1.141702   -0.398394
      5          6           0        1.929598    1.138887   -0.395656
      6          6           0        1.215251    0.000029    0.000381
      7          1           0        5.094798    0.000849   -0.002559
      8          1           0        1.403168    2.025094   -0.718140
      9          1           0        3.864274   -2.022935    0.706331
     10          1           0        1.405084   -2.024996    0.718430
     11          6           0       -3.082772   -0.002686    0.007336
     12          6           0       -2.385879    1.138888    0.400174
     13          6           0       -0.993221    1.137030    0.397457
     14          6           0       -0.277875   -0.000390    0.001473
     15          6           0       -0.993078   -1.138050   -0.394432
     16          6           0       -2.385747   -1.140893   -0.394891
     17          1           0       -0.468261    2.024063    0.719545
     18          1           0       -0.467856   -2.023968   -0.719414
     19          1           0        3.862297    2.024155   -0.709639
     20          6           0       -4.599577    0.001409   -0.004836
     21          1           0       -4.986108   -0.651200   -0.788470
     22          1           0       -4.990715   -0.333487    0.956125
     23          1           0       -4.986120    0.999749   -0.212963
     24          1           0       -2.918018    2.025616    0.712217
     25          1           0       -2.917647   -2.026979   -0.709077
 ---------------------------------------------------------------------
 Rotational constants (GHZ):           2.8074048           0.3984863           0.3592750
 Standard basis: def2TZVP (5D, 7F)
 There are   540 symmetry adapted cartesian basis functions of A   symmetry.
 There are   475 symmetry adapted basis functions of A   symmetry.
   475 basis functions,   759 primitive gaussians,   540 cartesian basis functions
    45 alpha electrons       45 beta electrons
       nuclear repulsion energy       688.2317742839 Hartrees.
 NAtoms=   25 NActive=   25 NUniq=   25 SFac= 1.00D+00 NAtFMM=   60 NAOKFM=F Big=F
 Integral buffers will be    131072 words long.
 Raffenetti 2 integral format.
 Two-electron integral symmetry is turned on.
 One-electron integrals computed using PRISM.
   1 Symmetry operations used in ECPInt.
 ECPInt:  NShTT=   18336 NPrTT=   55600 LenC2=   16797 LenP2D=   38463.
 LDataN:  DoStor=T MaxTD1= 6 Len=  172
 NBasis=   475 RedAO= T EigKep=  7.16D-06  NBF=   475
 NBsUse=   475 1.00D-06 EigRej= -1.00D+00 NBFU=   475
 ExpMin= 9.52D-02 ExpMax= 1.36D+04 ExpMxC= 4.63D+02 IAcc=3 IRadAn=         5 AccDes= 0.00D+00
 Harris functional with IExCor= 1009 and IRadAn=       5 diagonalized for initial guess.
 HarFok:  IExCor= 1009 AccDes= 0.00D+00 IRadAn=         5 IDoV= 1 UseB2=F ITyADJ=14
 ICtDFT=  3500011 ScaDFX=  1.000000  1.000000  1.000000  1.000000
 FoFCou: FMM=F IPFlag=           0 FMFlag=      100000 FMFlg1=           0
         NFxFlg=           0 DoJE=T BraDBF=F KetDBF=T FulRan=T
         wScrn=  0.000000 ICntrl=       500 IOpCl=  0 I1Cent=   200000004 NGrid=           0
         NMat0=    1 NMatS0=      1 NMatT0=    0 NMatD0=    1 NMtDS0=    0 NMtDT0=    0
 Petite list used in FoFCou.
 Requested convergence on RMS density matrix=1.00D-08 within 128 cycles.
 Requested convergence on MAX density matrix=1.00D-06.
 Requested convergence on             energy=1.00D-06.
 No special actions if energy rises.
 Integral accuracy reduced to 1.0D-05 until final iterations.
 Problem detected with inexpensive integrals.
 Switching to full accuracy and repeating last cycle.
 SCF Done:  E(RM062X) =  -502.577084578     A.U. after   24 cycles
            NFock= 24  Conv=0.69D-08     -V/T= 2.0054

 **********************************************************************

            Population analysis using the SCF Density.

 **********************************************************************

 Orbital symmetries:
       Occupied  (A) (A) (A) (A) (A) (A) (A) (A) (A) (A) (A) (A)
                 (A) (A) (A) (A) (A) (A) (A) (A) (A) (A) (A) (A)
                 (A) (A) (A) (A) (A) (A) (A) (A) (A) (A) (A) (A)
                 (A) (A) (A) (A) (A) (A) (A) (A) (A)
       Virtual   (A) (A) (A) (A) (A) (A) (A) (A) (A) (A) (A) (A)
                 (A) (A) (A) (A) (A) (A) (A) (A) (A) (A) (A) (A)
                 (A) (A) (A) (A) (A) (A) (A) (A) (A) (A) (A) (A)
                 (A) (A) (A) (A) (A) (A) (A) (A) (A) (A) (A) (A)
                 (A) (A) (A) (A) (A) (A) (A) (A) (A) (A) (A) (A)
                 (A) (A) (A) (A) (A) (A) (A) (A) (A) (A) (A) (A)
                 (A) (A) (A) (A) (A) (A) (A) (A) (A) (A) (A) (A)
                 (A) (A) (A) (A) (A) (A) (A) (A) (A) (A) (A) (A)
                 (A) (A) (A) (A) (A) (A) (A) (A) (A) (A) (A) (A)
                 (A) (A) (A) (A) (A) (A) (A) (A) (A) (A) (A) (A)
                 (A) (A) (A) (A) (A) (A) (A) (A) (A) (A) (A) (A)
                 (A) (A) (A) (A) (A) (A) (A) (A) (A) (A) (A) (A)
                 (A) (A) (A) (A) (A) (A) (A) (A) (A) (A) (A) (A)
                 (A) (A) (A) (A) (A) (A) (A) (A) (A) (A) (A) (A)
                 (A) (A) (A) (A) (A) (A) (A) (A) (A) (A) (A) (A)
                 (A) (A) (A) (A) (A) (A) (A) (A) (A) (A) (A) (A)
                 (A) (A) (A) (A) (A) (A) (A) (A) (A) (A) (A) (A)
                 (A) (A) (A) (A) (A) (A) (A) (A) (A) (A) (A) (A)
                 (A) (A) (A) (A) (A) (A) (A) (A) (A) (A) (A) (A)
                 (A) (A) (A) (A) (A) (A) (A) (A) (A) (A) (A) (A)
                 (A) (A) (A) (A) (A) (A) (A) (A) (A) (A) (A) (A)
                 (A) (A) (A) (A) (A) (A) (A) (A) (A) (A) (A) (A)
                 (A) (A) (A) (A) (A) (A) (A) (A) (A) (A) (A) (A)
                 (A) (A) (A) (A) (A) (A) (A) (A) (A) (A) (A) (A)
                 (A) (A) (A) (A) (A) (A) (A) (A) (A) (A) (A) (A)
                 (A) (A) (A) (A) (A) (A) (A) (A) (A) (A) (A) (A)
                 (A) (A) (A) (A) (A) (A) (A) (A) (A) (A) (A) (A)
                 (A) (A) (A) (A) (A) (A) (A) (A) (A) (A) (A) (A)
                 (A) (A) (A) (A) (A) (A) (A) (A) (A) (A) (A) (A)
                 (A) (A) (A) (A) (A) (A) (A) (A) (A) (A) (A) (A)
                 (A) (A) (A) (A) (A) (A) (A) (A) (A) (A) (A) (A)
                 (A) (A) (A) (A) (A) (A) (A) (A) (A) (A) (A) (A)
                 (A) (A) (A) (A) (A) (A) (A) (A) (A) (A) (A) (A)
                 (A) (A) (A) (A) (A) (A) (A) (A) (A) (A) (A) (A)
                 (A) (A) (A) (A) (A) (A) (A) (A) (A) (A) (A) (A)
                 (A) (A) (A) (A) (A) (A) (A) (A) (A) (A)
 The electronic state is 1-A.
 Alpha  occ. eigenvalues --  -10.55332 -10.55076 -10.54929 -10.54198 -10.54192
 Alpha  occ. eigenvalues --  -10.54149 -10.54144 -10.54111 -10.54105 -10.53966
 Alpha  occ. eigenvalues --  -10.53880 -10.53876 -10.53184  -0.97461  -0.95314
 Alpha  occ. eigenvalues --   -0.88579  -0.84722  -0.83933  -0.83474  -0.77129
 Alpha  occ. eigenvalues --   -0.70415  -0.69233  -0.67572  -0.65270  -0.60521
 Alpha  occ. eigenvalues --   -0.55872  -0.53936  -0.53607  -0.51226  -0.50870
 Alpha  occ. eigenvalues --   -0.49298  -0.49197  -0.48437  -0.47323  -0.45318
 Alpha  occ. eigenvalues --   -0.44033  -0.42189  -0.41664  -0.40971  -0.39320
 Alpha  occ. eigenvalues --   -0.38873  -0.32769  -0.30880  -0.30824  -0.27296
 Alpha virt. eigenvalues --   -0.00208   0.01635   0.02204   0.05405   0.07811
 Alpha virt. eigenvalues --    0.08547   0.09862   0.09957   0.11616   0.12049
 Alpha virt. eigenvalues --    0.13527   0.13844   0.14912   0.15556   0.15949
 Alpha virt. eigenvalues --    0.16724   0.16914   0.17830   0.18721   0.19478
 Alpha virt. eigenvalues --    0.20686   0.21973   0.22334   0.23463   0.24334
 Alpha virt. eigenvalues --    0.24913   0.25085   0.25953   0.26488   0.26908
 Alpha virt. eigenvalues --    0.27518   0.28176   0.28389   0.29885   0.30608
 Alpha virt. eigenvalues --    0.30690   0.31677   0.32576   0.33885   0.34336
 Alpha virt. eigenvalues --    0.34742   0.35259   0.36970   0.37538   0.37597
 Alpha virt. eigenvalues --    0.38021   0.38095   0.39421   0.39971   0.40810
 Alpha virt. eigenvalues --    0.41304   0.41786   0.41995   0.42977   0.44341
 Alpha virt. eigenvalues --    0.44746   0.44951   0.45680   0.46089   0.46404
 Alpha virt. eigenvalues --    0.46940   0.47949   0.47997   0.49068   0.49713
 Alpha virt. eigenvalues --    0.51705   0.51923   0.51995   0.52795   0.53154
 Alpha virt. eigenvalues --    0.53637   0.54974   0.56081   0.57002   0.57300
 Alpha virt. eigenvalues --    0.58148   0.59383   0.60813   0.62586   0.63541
 Alpha virt. eigenvalues --    0.64627   0.65652   0.67617   0.69002   0.69693
 Alpha virt. eigenvalues --    0.70816   0.72148   0.72789   0.73751   0.73936
 Alpha virt. eigenvalues --    0.75292   0.75504   0.76048   0.77271   0.77583
 Alpha virt. eigenvalues --    0.77969   0.79600   0.80776   0.82481   0.82977
 Alpha virt. eigenvalues --    0.83434   0.85376   0.85864   0.86514   0.89203
 Alpha virt. eigenvalues --    0.90539   0.91382   0.91807   0.92528   0.92967
 Alpha virt. eigenvalues --    0.94022   0.95951   0.96987   0.97901   0.99659
 Alpha virt. eigenvalues --    1.00464   1.00736   1.03701   1.04316   1.05044
 Alpha virt. eigenvalues --    1.06012   1.06632   1.09251   1.09903   1.12049
 Alpha virt. eigenvalues --    1.12822   1.14238   1.15215   1.19320   1.19618
 Alpha virt. eigenvalues --    1.20733   1.21602   1.22281   1.23394   1.25370
 Alpha virt. eigenvalues --    1.25650   1.26247   1.27653   1.29322   1.30708
 Alpha virt. eigenvalues --    1.31036   1.32517   1.32861   1.33335   1.35233
 Alpha virt. eigenvalues --    1.36696   1.38014   1.38478   1.38733   1.41872
 Alpha virt. eigenvalues --    1.44377   1.45086   1.47260   1.48334   1.49581
 Alpha virt. eigenvalues --    1.50059   1.51863   1.54023   1.55173   1.55274
 Alpha virt. eigenvalues --    1.55755   1.56912   1.58368   1.59120   1.59241
 Alpha virt. eigenvalues --    1.60212   1.60469   1.61837   1.62882   1.63948
 Alpha virt. eigenvalues --    1.64813   1.65340   1.68075   1.69773   1.70228
 Alpha virt. eigenvalues --    1.70881   1.71568   1.72935   1.74790   1.75648
 Alpha virt. eigenvalues --    1.76073   1.77223   1.78773   1.79162   1.80528
 Alpha virt. eigenvalues --    1.81267   1.85281   1.88958   1.89597   1.90327
 Alpha virt. eigenvalues --    1.91964   1.92107   1.94933   1.95134   1.96310
 Alpha virt. eigenvalues --    2.01607   2.02100   2.03554   2.05164   2.05993
 Alpha virt. eigenvalues --    2.07225   2.07525   2.08777   2.09983   2.11357
 Alpha virt. eigenvalues --    2.13618   2.16166   2.19410   2.19996   2.20630
 Alpha virt. eigenvalues --    2.21209   2.22089   2.22855   2.24960   2.26010
 Alpha virt. eigenvalues --    2.26479   2.27813   2.28539   2.31026   2.34839
 Alpha virt. eigenvalues --    2.35739   2.37509   2.39037   2.40615   2.42159
 Alpha virt. eigenvalues --    2.43667   2.47173   2.48242   2.48705   2.50788
 Alpha virt. eigenvalues --    2.52641   2.54411   2.55020   2.55819   2.57582
 Alpha virt. eigenvalues --    2.58283   2.60196   2.61078   2.62174   2.63810
 Alpha virt. eigenvalues --    2.64440   2.64864   2.66219   2.66735   2.68374
 Alpha virt. eigenvalues --    2.69069   2.69541   2.70169   2.71313   2.72427
 Alpha virt. eigenvalues --    2.72901   2.74264   2.74863   2.75885   2.76323
 Alpha virt. eigenvalues --    2.76894   2.78048   2.79090   2.79185   2.81547
 Alpha virt. eigenvalues --    2.82351   2.82723   2.84039   2.84469   2.85284
 Alpha virt. eigenvalues --    2.85980   2.87118   2.87520   2.87998   2.90138
 Alpha virt. eigenvalues --    2.91602   2.92666   2.95951   2.96748   2.98166
 Alpha virt. eigenvalues --    2.98536   3.00031   3.02277   3.03009   3.03485
 Alpha virt. eigenvalues --    3.05111   3.06900   3.07549   3.09410   3.10276
 Alpha virt. eigenvalues --    3.10853   3.11871   3.13017   3.14159   3.14825
 Alpha virt. eigenvalues --    3.15274   3.15321   3.15901   3.16725   3.17421
 Alpha virt. eigenvalues --    3.18594   3.19605   3.20308   3.21723   3.23202
 Alpha virt. eigenvalues --    3.24060   3.25328   3.26065   3.27218   3.27904
 Alpha virt. eigenvalues --    3.29135   3.30735   3.31474   3.31943   3.32661
 Alpha virt. eigenvalues --    3.33358   3.35383   3.35815   3.37305   3.38640
 Alpha virt. eigenvalues --    3.38740   3.39663   3.40590   3.41629   3.42389
 Alpha virt. eigenvalues --    3.43235   3.44257   3.44830   3.45701   3.47039
 Alpha virt. eigenvalues --    3.47713   3.48817   3.49020   3.50297   3.51660
 Alpha virt. eigenvalues --    3.52519   3.54014   3.54700   3.56936   3.58639
 Alpha virt. eigenvalues --    3.59214   3.60698   3.62475   3.63674   3.66066
 Alpha virt. eigenvalues --    3.68125   3.69090   3.70245   3.75332   3.75977
 Alpha virt. eigenvalues --    3.76626   3.77823   3.80271   3.82338   3.84719
 Alpha virt. eigenvalues --    3.87310   3.90165   3.91517   3.94502   3.95942
 Alpha virt. eigenvalues --    3.97894   4.01330   4.01900   4.03991   4.04752
 Alpha virt. eigenvalues --    4.07460   4.08709   4.11101   4.11309   4.14433
 Alpha virt. eigenvalues --    4.14905   4.15467   4.16252   4.17578   4.18463
 Alpha virt. eigenvalues --    4.18863   4.19674   4.19970   4.20476   4.22396
 Alpha virt. eigenvalues --    4.23659   4.25114   4.27024   4.30636   4.31360
 Alpha virt. eigenvalues --    4.33075   4.35140   4.38497   4.39868   4.42732
 Alpha virt. eigenvalues --    4.46055   4.53552   4.53896   4.58404   4.59112
 Alpha virt. eigenvalues --    4.60845   4.62396   4.64060   4.66732   4.67736
 Alpha virt. eigenvalues --    4.68597   4.72387   4.84135   4.85879   4.88677
 Alpha virt. eigenvalues --    4.88941   4.90445   4.93400   4.95355   5.06799
 Alpha virt. eigenvalues --    5.11887   5.17542   5.22909   5.24887   5.27607
 Alpha virt. eigenvalues --    5.32672   5.36384   5.38927   5.43404   5.56946
 Alpha virt. eigenvalues --    5.57031   5.73491  22.01745  22.39161  22.51235
 Alpha virt. eigenvalues --   22.67989  22.71495  22.79897  22.80935  22.82424
 Alpha virt. eigenvalues --   22.87731  22.93732  23.01462  23.28579  23.47800
          Condensed to atoms (all electrons):
               1          2          3          4          5          6
     1  C    5.016874   0.508757  -0.045182  -0.046318  -0.030584   0.502741
     2  C    0.508757   4.898413   0.525448  -0.039881  -0.046694  -0.059801
     3  C   -0.045182   0.525448   4.878144   0.525526  -0.045056  -0.039347
     4  C   -0.046318  -0.039881   0.525526   4.898074   0.508370  -0.059440
     5  C   -0.030584  -0.046694  -0.045056   0.508370   5.015015   0.506425
     6  C    0.502741  -0.059801  -0.039347  -0.059440   0.506425   4.953480
     7  H    0.004256  -0.034986   0.410228  -0.035031   0.004293   0.000946
     8  H    0.005386  -0.000029   0.002317  -0.020517   0.394318  -0.036167
     9  H   -0.031112   0.408077  -0.031676   0.003676  -0.000030   0.004545
    10  H    0.394616  -0.020642   0.002337  -0.000022   0.005320  -0.036617
    11  C    0.000078  -0.000014   0.000003  -0.000016   0.000051  -0.001018
    12  C   -0.001129   0.000051  -0.000020  -0.000039   0.001962   0.005064
    13  C    0.009634  -0.000577  -0.000026   0.001913  -0.002241  -0.076506
    14  C   -0.077913   0.006736  -0.002485   0.006492  -0.079454   0.284164
    15  C   -0.003618   0.001619   0.000022  -0.000753   0.008315  -0.069243
    16  C    0.002633  -0.000012  -0.000023   0.000088  -0.000938   0.002159
    17  H    0.000298  -0.000107  -0.000080   0.000776   0.002881   0.000823
    18  H    0.002903   0.000742  -0.000077  -0.000113   0.000200   0.000940
    19  H   -0.000041   0.003696  -0.031664   0.408156  -0.031178   0.004513
    20  C   -0.000002   0.000000  -0.000000   0.000000   0.000000   0.000001
    21  H   -0.000002  -0.000000   0.000000  -0.000000  -0.000000   0.000007
    22  H   -0.000001   0.000000   0.000000  -0.000000  -0.000000  -0.000017
    23  H    0.000001   0.000000   0.000000   0.000000   0.000001  -0.000008
    24  H    0.000039  -0.000000  -0.000000  -0.000000   0.000018  -0.000055
    25  H    0.000017  -0.000000  -0.000000  -0.000000   0.000041  -0.000084
               7          8          9         10         11         12
     1  C    0.004256   0.005386  -0.031112   0.394616   0.000078  -0.001129
     2  C   -0.034986  -0.000029   0.408077  -0.020642  -0.000014   0.000051
     3  C    0.410228   0.002317  -0.031676   0.002337   0.000003  -0.000020
     4  C   -0.035031  -0.020517   0.003676  -0.000022  -0.000016  -0.000039
     5  C    0.004293   0.394318  -0.000030   0.005320   0.000051   0.001962
     6  C    0.000946  -0.036167   0.004545  -0.036617  -0.001018   0.005064
     7  H    0.517985  -0.000295  -0.004040  -0.000295   0.000000  -0.000000
     8  H   -0.000295   0.491483   0.000068  -0.000226  -0.000026   0.000710
     9  H   -0.004040   0.000068   0.511004  -0.003344   0.000000  -0.000000
    10  H   -0.000295  -0.000226  -0.003344   0.491290  -0.000044  -0.000216
    11  C    0.000000  -0.000026   0.000000  -0.000044   4.909688   0.525637
    12  C   -0.000000   0.000710  -0.000000  -0.000216   0.525637   5.009229
    13  C   -0.000007   0.002914   0.000034   0.000666  -0.055628   0.491042
    14  C    0.000117   0.002320  -0.000163   0.002922  -0.027925  -0.060666
    15  C   -0.000006   0.000450   0.000039   0.002546  -0.055477  -0.040477
    16  C   -0.000000  -0.000143  -0.000001   0.000806   0.522190  -0.057957
    17  H   -0.000000  -0.001933   0.000002   0.000053   0.001518  -0.018109
    18  H    0.000000   0.000047   0.000057  -0.002062   0.001957   0.000218
    19  H   -0.004043  -0.003322  -0.000276   0.000068   0.000000  -0.000001
    20  C   -0.000000   0.000001   0.000000   0.000002   0.276964  -0.069279
    21  H    0.000000  -0.000000   0.000000  -0.000000  -0.052986   0.011298
    22  H   -0.000000  -0.000000  -0.000000   0.000000  -0.029389  -0.003316
    23  H   -0.000000   0.000000   0.000000   0.000000  -0.053611  -0.015155
    24  H   -0.000000   0.000049   0.000000   0.000002  -0.033425   0.400207
    25  H   -0.000000   0.000002   0.000000   0.000053  -0.033682   0.006323
              13         14         15         16         17         18
     1  C    0.009634  -0.077913  -0.003618   0.002633   0.000298   0.002903
     2  C   -0.000577   0.006736   0.001619  -0.000012  -0.000107   0.000742
     3  C   -0.000026  -0.002485   0.000022  -0.000023  -0.000080  -0.000077
     4  C    0.001913   0.006492  -0.000753   0.000088   0.000776  -0.000113
     5  C   -0.002241  -0.079454   0.008315  -0.000938   0.002881   0.000200
     6  C   -0.076506   0.284164  -0.069243   0.002159   0.000823   0.000940
     7  H   -0.000007   0.000117  -0.000006  -0.000000  -0.000000   0.000000
     8  H    0.002914   0.002320   0.000450  -0.000143  -0.001933   0.000047
     9  H    0.000034  -0.000163   0.000039  -0.000001   0.000002   0.000057
    10  H    0.000666   0.002922   0.002546   0.000806   0.000053  -0.002062
    11  C   -0.055628  -0.027925  -0.055477   0.522190   0.001518   0.001957
    12  C    0.491042  -0.060666  -0.040477  -0.057957  -0.018109   0.000218
    13  C    5.012397   0.514496  -0.035414  -0.043403   0.391389   0.005517
    14  C    0.514496   4.948044   0.506584  -0.053407  -0.032720  -0.033172
    15  C   -0.035414   0.506584   5.014905   0.487082   0.005437   0.392629
    16  C   -0.043403  -0.053407   0.487082   5.015389   0.000233  -0.019529
    17  H    0.391389  -0.032720   0.005437   0.000233   0.490814  -0.000234
    18  H    0.005517  -0.033172   0.392629  -0.019529  -0.000234   0.490823
    19  H    0.000034  -0.000162   0.000035  -0.000000   0.000057   0.000002
    20  C    0.010499  -0.001038   0.009577  -0.068787  -0.000269  -0.000245
    21  H   -0.000940  -0.000067   0.002170  -0.015337   0.000012  -0.000019
    22  H   -0.001030   0.000136  -0.000957  -0.003549   0.000010   0.000017
    23  H    0.002110   0.000055  -0.000983   0.011590  -0.000018   0.000006
    24  H   -0.021479   0.003250  -0.000615   0.006248  -0.002917   0.000068
    25  H   -0.000717   0.003400  -0.021916   0.400711   0.000068  -0.002982
              19         20         21         22         23         24
     1  C   -0.000041  -0.000002  -0.000002  -0.000001   0.000001   0.000039
     2  C    0.003696   0.000000  -0.000000   0.000000   0.000000  -0.000000
     3  C   -0.031664  -0.000000   0.000000   0.000000   0.000000  -0.000000
     4  C    0.408156   0.000000  -0.000000  -0.000000   0.000000  -0.000000
     5  C   -0.031178   0.000000  -0.000000  -0.000000   0.000001   0.000018
     6  C    0.004513   0.000001   0.000007  -0.000017  -0.000008  -0.000055
     7  H   -0.004043  -0.000000   0.000000  -0.000000  -0.000000  -0.000000
     8  H   -0.003322   0.000001  -0.000000  -0.000000   0.000000   0.000049
     9  H   -0.000276   0.000000   0.000000  -0.000000   0.000000   0.000000
    10  H    0.000068   0.000002  -0.000000   0.000000   0.000000   0.000002
    11  C    0.000000   0.276964  -0.052986  -0.029389  -0.053611  -0.033425
    12  C   -0.000001  -0.069279   0.011298  -0.003316  -0.015155   0.400207
    13  C    0.000034   0.010499  -0.000940  -0.001030   0.002110  -0.021479
    14  C   -0.000162  -0.001038  -0.000067   0.000136   0.000055   0.003250
    15  C    0.000035   0.009577   0.002170  -0.000957  -0.000983  -0.000615
    16  C   -0.000000  -0.068787  -0.015337  -0.003549   0.011590   0.006248
    17  H    0.000057  -0.000269   0.000012   0.000010  -0.000018  -0.002917
    18  H    0.000002  -0.000245  -0.000019   0.000017   0.000006   0.000068
    19  H    0.510992   0.000000  -0.000000   0.000000  -0.000000   0.000000
    20  C    0.000000   5.073144   0.430814   0.394767   0.430790  -0.005767
    21  H   -0.000000   0.430814   0.535859  -0.027215  -0.029135   0.000068
    22  H    0.000000   0.394767  -0.027215   0.539024  -0.027348   0.000578
    23  H   -0.000000   0.430790  -0.029135  -0.027348   0.536483   0.000018
    24  H    0.000000  -0.005767   0.000068   0.000578   0.000018   0.507191
    25  H    0.000000  -0.005804   0.000046   0.000474   0.000112  -0.000236
              25
     1  C    0.000017
     2  C   -0.000000
     3  C   -0.000000
     4  C   -0.000000
     5  C    0.000041
     6  C   -0.000084
     7  H   -0.000000
     8  H    0.000002
     9  H    0.000000
    10  H    0.000053
    11  C   -0.033682
    12  C    0.006323
    13  C   -0.000717
    14  C    0.003400
    15  C   -0.021916
    16  C    0.400711
    17  H    0.000068
    18  H   -0.002982
    19  H    0.000000
    20  C   -0.005804
    21  H    0.000046
    22  H    0.000474
    23  H    0.000112
    24  H   -0.000236
    25  H    0.507318
 Mulliken charges:
               1
     1  C   -0.212333
     2  C   -0.150794
     3  C   -0.148391
     4  C   -0.150939
     5  C   -0.211034
     6  C    0.112495
     7  H    0.140878
     8  H    0.162592
     9  H    0.143141
    10  H    0.162785
    11  C    0.105156
    12  C   -0.185378
    13  C   -0.204681
    14  C    0.090456
    15  C   -0.201950
    16  C   -0.186043
    17  H    0.162016
    18  H    0.162307
    19  H    0.143136
    20  C   -0.475370
    21  H    0.145427
    22  H    0.157817
    23  H    0.145092
    24  H    0.146758
    25  H    0.146855
 Sum of Mulliken charges =  -0.00000
 Mulliken charges with hydrogens summed into heavy atoms:
               1
     1  C   -0.049548
     2  C   -0.007652
     3  C   -0.007512
     4  C   -0.007803
     5  C   -0.048442
     6  C    0.112495
    11  C    0.105156
    12  C   -0.038620
    13  C   -0.042665
    14  C    0.090456
    15  C   -0.039643
    16  C   -0.039188
    20  C   -0.027034
 Electronic spatial extent (au):  <R**2>=           3052.1313
 Charge=              0.0000 electrons
 Dipole moment (field-independent basis, Debye):
    X=             -0.4684    Y=             -0.0020    Z=              0.0061  Tot=              0.4685
 Quadrupole moment (field-independent basis, Debye-Ang):
   XX=            -67.3303   YY=            -69.9888   ZZ=            -82.0664
   XY=             -0.0003   XZ=             -0.0017   YZ=             -0.1601
 Traceless Quadrupole moment (field-independent basis, Debye-Ang):
   XX=              5.7982   YY=              3.1397   ZZ=             -8.9379
   XY=             -0.0003   XZ=             -0.0017   YZ=             -0.1601
 Octapole moment (field-independent basis, Debye-Ang**2):
  XXX=              2.2141  YYY=              0.5290  ZZZ=              0.3482  XYY=              1.7005
  XXY=              0.0471  XXZ=             -0.2270  XZZ=             -6.0019  YZZ=             -0.5229
  YYZ=             -0.3358  XYZ=            -11.0694
 Hexadecapole moment (field-independent basis, Debye-Ang**3):
 XXXX=          -3321.8119 YYYY=           -519.0675 ZZZZ=           -166.4762 XXXY=             -0.5680
 XXXZ=              1.6185 YYYX=             -2.7242 YYYZ=             -0.3016 ZZZX=             -1.7145
 ZZZY=             -0.3416 XXYY=           -642.8048 XXZZ=           -658.3656 YYZZ=           -118.6475
 XXYZ=            -14.1566 YYXZ=              1.7110 ZZXY=              2.7529
 N-N= 6.882317742839D+02 E-N=-2.541280218291D+03  KE= 4.998927348942D+02
 ******************************Gaussian NBO Version 3.1******************************
             N A T U R A L   A T O M I C   O R B I T A L   A N D
          N A T U R A L   B O N D   O R B I T A L   A N A L Y S I S
 ******************************Gaussian NBO Version 3.1******************************
       /RESON  / : Allow strongly delocalized NBO set

 Analyzing the SCF density

 Job title: Structure697                                                    

 Storage needed:    679250 in NPA,    904581 in NBO (1048572625 available)
 GSVD:  LWork=       85183 too small for GESVD, short by      193334 words or      193334 for optimal perf.


 NATURAL POPULATIONS:  Natural atomic orbital occupancies 
                                                          
   NAO  Atom  No  lang   Type(AO)    Occupancy      Energy
 ----------------------------------------------------------
     1    C    1  S      Cor( 1S)     1.99916     -10.37957
     2    C    1  S      Val( 2S)     0.96946      -0.22564
     3    C    1  S      Ryd( 3S)     0.00099       1.35268
     4    C    1  S      Ryd( 4S)     0.00020       1.49353
     5    C    1  S      Ryd( 5S)     0.00001      21.37686
     6    C    1  px     Val( 2p)     1.07908      -0.06522
     7    C    1  px     Ryd( 3p)     0.00314       1.16058
     8    C    1  px     Ryd( 4p)     0.00018       2.43288
     9    C    1  py     Val( 2p)     1.11751      -0.06957
    10    C    1  py     Ryd( 3p)     0.00386       1.05158
    11    C    1  py     Ryd( 4p)     0.00027       2.51585
    12    C    1  pz     Val( 2p)     1.01536      -0.10851
    13    C    1  pz     Ryd( 3p)     0.00167       0.71383
    14    C    1  pz     Ryd( 4p)     0.00034       1.60304
    15    C    1  dxy    Ryd( 3d)     0.00170       1.78144
    16    C    1  dxy    Ryd( 4d)     0.00069       3.52214
    17    C    1  dxz    Ryd( 3d)     0.00034       1.45807
    18    C    1  dxz    Ryd( 4d)     0.00027       3.07929
    19    C    1  dyz    Ryd( 3d)     0.00060       1.47102
    20    C    1  dyz    Ryd( 4d)     0.00013       3.09816
    21    C    1  dx2y2  Ryd( 3d)     0.00150       1.78052
    22    C    1  dx2y2  Ryd( 4d)     0.00042       3.44459
    23    C    1  dz2    Ryd( 3d)     0.00085       1.52655
    24    C    1  dz2    Ryd( 4d)     0.00005       3.26282
    25    C    1  f(0)   Ryd( 4f)     0.00026       3.45717
    26    C    1  f(C1)  Ryd( 4f)     0.00013       3.55876
    27    C    1  f(S1)  Ryd( 4f)     0.00022       3.40057
    28    C    1  f(C2)  Ryd( 4f)     0.00007       3.55718
    29    C    1  f(S2)  Ryd( 4f)     0.00008       3.58048
    30    C    1  f(C3)  Ryd( 4f)     0.00012       4.20845
    31    C    1  f(S3)  Ryd( 4f)     0.00006       3.95216
 
    32    C    2  S      Cor( 1S)     1.99924     -10.38071
    33    C    2  S      Val( 2S)     0.97545      -0.23239
    34    C    2  S      Ryd( 3S)     0.00093       1.09066
    35    C    2  S      Ryd( 4S)     0.00016       1.41764
    36    C    2  S      Ryd( 5S)     0.00000      21.60015
    37    C    2  px     Val( 2p)     1.07727      -0.06277
    38    C    2  px     Ryd( 3p)     0.00388       1.05426
    39    C    2  px     Ryd( 4p)     0.00027       2.19772
    40    C    2  py     Val( 2p)     1.12468      -0.07336
    41    C    2  py     Ryd( 3p)     0.00415       1.11367
    42    C    2  py     Ryd( 4p)     0.00018       2.04919
    43    C    2  pz     Val( 2p)     1.01021      -0.10908
    44    C    2  pz     Ryd( 3p)     0.00172       0.75798
    45    C    2  pz     Ryd( 4p)     0.00033       1.43481
    46    C    2  dxy    Ryd( 3d)     0.00117       1.84012
    47    C    2  dxy    Ryd( 4d)     0.00067       3.50726
    48    C    2  dxz    Ryd( 3d)     0.00029       1.43985
    49    C    2  dxz    Ryd( 4d)     0.00025       3.03956
    50    C    2  dyz    Ryd( 3d)     0.00053       1.43087
    51    C    2  dyz    Ryd( 4d)     0.00017       3.06217
    52    C    2  dx2y2  Ryd( 3d)     0.00177       1.68800
    53    C    2  dx2y2  Ryd( 4d)     0.00052       3.39688
    54    C    2  dz2    Ryd( 3d)     0.00061       1.50688
    55    C    2  dz2    Ryd( 4d)     0.00008       3.21763
    56    C    2  f(0)   Ryd( 4f)     0.00022       3.43308
    57    C    2  f(C1)  Ryd( 4f)     0.00013       3.56731
    58    C    2  f(S1)  Ryd( 4f)     0.00017       3.36049
    59    C    2  f(C2)  Ryd( 4f)     0.00006       3.55277
    60    C    2  f(S2)  Ryd( 4f)     0.00005       3.53735
    61    C    2  f(C3)  Ryd( 4f)     0.00007       4.19760
    62    C    2  f(S3)  Ryd( 4f)     0.00007       3.90348
 
    63    C    3  S      Cor( 1S)     1.99924     -10.37910
    64    C    3  S      Val( 2S)     0.97594      -0.23265
    65    C    3  S      Ryd( 3S)     0.00091       1.11245
    66    C    3  S      Ryd( 4S)     0.00015       1.37913
    67    C    3  S      Ryd( 5S)     0.00000      21.63913
    68    C    3  px     Val( 2p)     1.16971      -0.06905
    69    C    3  px     Ryd( 3p)     0.00458       1.19325
    70    C    3  px     Ryd( 4p)     0.00017       2.09937
    71    C    3  py     Val( 2p)     1.04425      -0.06666
    72    C    3  py     Ryd( 3p)     0.00347       0.97222
    73    C    3  py     Ryd( 4p)     0.00033       2.17795
    74    C    3  pz     Val( 2p)     1.00716      -0.10866
    75    C    3  pz     Ryd( 3p)     0.00190       0.72171
    76    C    3  pz     Ryd( 4p)     0.00040       1.44672
    77    C    3  dxy    Ryd( 3d)     0.00174       1.70364
    78    C    3  dxy    Ryd( 4d)     0.00048       3.27119
    79    C    3  dxz    Ryd( 3d)     0.00048       1.38950
    80    C    3  dxz    Ryd( 4d)     0.00012       2.84955
    81    C    3  dyz    Ryd( 3d)     0.00042       1.58066
    82    C    3  dyz    Ryd( 4d)     0.00019       3.14317
    83    C    3  dx2y2  Ryd( 3d)     0.00091       1.94881
    84    C    3  dx2y2  Ryd( 4d)     0.00072       3.48449
    85    C    3  dz2    Ryd( 3d)     0.00056       1.58147
    86    C    3  dz2    Ryd( 4d)     0.00014       3.17728
    87    C    3  f(0)   Ryd( 4f)     0.00015       3.41573
    88    C    3  f(C1)  Ryd( 4f)     0.00018       3.46891
    89    C    3  f(S1)  Ryd( 4f)     0.00016       3.49897
    90    C    3  f(C2)  Ryd( 4f)     0.00005       3.43701
    91    C    3  f(S2)  Ryd( 4f)     0.00008       3.63279
    92    C    3  f(C3)  Ryd( 4f)     0.00006       4.18455
    93    C    3  f(S3)  Ryd( 4f)     0.00007       3.87261
 
    94    C    4  S      Cor( 1S)     1.99924     -10.38071
    95    C    4  S      Val( 2S)     0.97547      -0.23240
    96    C    4  S      Ryd( 3S)     0.00093       1.09083
    97    C    4  S      Ryd( 4S)     0.00016       1.41919
    98    C    4  S      Ryd( 5S)     0.00000      21.59915
    99    C    4  px     Val( 2p)     1.07716      -0.06276
   100    C    4  px     Ryd( 3p)     0.00388       1.05414
   101    C    4  px     Ryd( 4p)     0.00027       2.19773
   102    C    4  py     Val( 2p)     1.12472      -0.07335
   103    C    4  py     Ryd( 3p)     0.00415       1.11371
   104    C    4  py     Ryd( 4p)     0.00018       2.04917
   105    C    4  pz     Val( 2p)     1.01025      -0.10908
   106    C    4  pz     Ryd( 3p)     0.00172       0.75806
   107    C    4  pz     Ryd( 4p)     0.00033       1.43475
   108    C    4  dxy    Ryd( 3d)     0.00118       1.83995
   109    C    4  dxy    Ryd( 4d)     0.00067       3.50694
   110    C    4  dxz    Ryd( 3d)     0.00029       1.43989
   111    C    4  dxz    Ryd( 4d)     0.00025       3.03938
   112    C    4  dyz    Ryd( 3d)     0.00053       1.43105
   113    C    4  dyz    Ryd( 4d)     0.00017       3.06211
   114    C    4  dx2y2  Ryd( 3d)     0.00177       1.68837
   115    C    4  dx2y2  Ryd( 4d)     0.00052       3.39716
   116    C    4  dz2    Ryd( 3d)     0.00061       1.50684
   117    C    4  dz2    Ryd( 4d)     0.00008       3.21749
   118    C    4  f(0)   Ryd( 4f)     0.00022       3.43324
   119    C    4  f(C1)  Ryd( 4f)     0.00013       3.56717
   120    C    4  f(S1)  Ryd( 4f)     0.00017       3.36023
   121    C    4  f(C2)  Ryd( 4f)     0.00006       3.55265
   122    C    4  f(S2)  Ryd( 4f)     0.00005       3.53760
   123    C    4  f(C3)  Ryd( 4f)     0.00007       4.19752
   124    C    4  f(S3)  Ryd( 4f)     0.00007       3.90361
 
   125    C    5  S      Cor( 1S)     1.99916     -10.37957
   126    C    5  S      Val( 2S)     0.96947      -0.22565
   127    C    5  S      Ryd( 3S)     0.00099       1.35285
   128    C    5  S      Ryd( 4S)     0.00020       1.49620
   129    C    5  S      Ryd( 5S)     0.00001      21.37774
   130    C    5  px     Val( 2p)     1.07915      -0.06521
   131    C    5  px     Ryd( 3p)     0.00314       1.16079
   132    C    5  px     Ryd( 4p)     0.00018       2.43270
   133    C    5  py     Val( 2p)     1.11752      -0.06956
   134    C    5  py     Ryd( 3p)     0.00386       1.05153
   135    C    5  py     Ryd( 4p)     0.00027       2.51596
   136    C    5  pz     Val( 2p)     1.01524      -0.10848
   137    C    5  pz     Ryd( 3p)     0.00167       0.71383
   138    C    5  pz     Ryd( 4p)     0.00034       1.60353
   139    C    5  dxy    Ryd( 3d)     0.00170       1.78209
   140    C    5  dxy    Ryd( 4d)     0.00069       3.52236
   141    C    5  dxz    Ryd( 3d)     0.00035       1.45811
   142    C    5  dxz    Ryd( 4d)     0.00027       3.07944
   143    C    5  dyz    Ryd( 3d)     0.00060       1.47075
   144    C    5  dyz    Ryd( 4d)     0.00013       3.09838
   145    C    5  dx2y2  Ryd( 3d)     0.00151       1.77991
   146    C    5  dx2y2  Ryd( 4d)     0.00042       3.44425
   147    C    5  dz2    Ryd( 3d)     0.00085       1.52669
   148    C    5  dz2    Ryd( 4d)     0.00005       3.26290
   149    C    5  f(0)   Ryd( 4f)     0.00026       3.45727
   150    C    5  f(C1)  Ryd( 4f)     0.00013       3.55855
   151    C    5  f(S1)  Ryd( 4f)     0.00022       3.40084
   152    C    5  f(C2)  Ryd( 4f)     0.00007       3.55722
   153    C    5  f(S2)  Ryd( 4f)     0.00008       3.58040
   154    C    5  f(C3)  Ryd( 4f)     0.00012       4.20827
   155    C    5  f(S3)  Ryd( 4f)     0.00006       3.95192
 
   156    C    6  S      Cor( 1S)     1.99911     -10.38933
   157    C    6  S      Val( 2S)     0.91089      -0.19935
   158    C    6  S      Ryd( 3S)     0.00080       1.47350
   159    C    6  S      Ryd( 4S)     0.00017       1.69792
   160    C    6  S      Ryd( 5S)     0.00000      21.34824
   161    C    6  px     Val( 2p)     1.04166      -0.05330
   162    C    6  px     Ryd( 3p)     0.00626       1.25351
   163    C    6  px     Ryd( 4p)     0.00045       1.88923
   164    C    6  py     Val( 2p)     1.06699      -0.07138
   165    C    6  py     Ryd( 3p)     0.00416       1.14809
   166    C    6  py     Ryd( 4p)     0.00044       1.49362
   167    C    6  pz     Val( 2p)     1.00704      -0.10431
   168    C    6  pz     Ryd( 3p)     0.00173       0.82442
   169    C    6  pz     Ryd( 4p)     0.00017       1.33871
   170    C    6  dxy    Ryd( 3d)     0.00150       2.32494
   171    C    6  dxy    Ryd( 4d)     0.00042       3.40141
   172    C    6  dxz    Ryd( 3d)     0.00036       1.37091
   173    C    6  dxz    Ryd( 4d)     0.00029       3.34845
   174    C    6  dyz    Ryd( 3d)     0.00023       1.51645
   175    C    6  dyz    Ryd( 4d)     0.00031       3.35760
   176    C    6  dx2y2  Ryd( 3d)     0.00129       2.41799
   177    C    6  dx2y2  Ryd( 4d)     0.00057       3.44761
   178    C    6  dz2    Ryd( 3d)     0.00038       1.74369
   179    C    6  dz2    Ryd( 4d)     0.00026       3.53988
   180    C    6  f(0)   Ryd( 4f)     0.00010       3.61468
   181    C    6  f(C1)  Ryd( 4f)     0.00008       3.72391
   182    C    6  f(S1)  Ryd( 4f)     0.00008       3.55451
   183    C    6  f(C2)  Ryd( 4f)     0.00004       3.68243
   184    C    6  f(S2)  Ryd( 4f)     0.00004       3.75594
   185    C    6  f(C3)  Ryd( 4f)     0.00009       4.29675
   186    C    6  f(S3)  Ryd( 4f)     0.00005       4.25751
 
   187    H    7  S      Val( 1S)     0.78743       0.05312
   188    H    7  S      Ryd( 2S)     0.00034       0.97415
   189    H    7  S      Ryd( 3S)     0.00018       1.81869
   190    H    7  px     Ryd( 2p)     0.00042       3.02908
   191    H    7  py     Ryd( 2p)     0.00005       2.72107
   192    H    7  pz     Ryd( 2p)     0.00007       2.25060
 
   193    H    8  S      Val( 1S)     0.78537       0.05304
   194    H    8  S      Ryd( 2S)     0.00054       1.37748
   195    H    8  S      Ryd( 3S)     0.00013       1.57106
   196    H    8  px     Ryd( 2p)     0.00018       2.86953
   197    H    8  py     Ryd( 2p)     0.00031       2.90266
   198    H    8  pz     Ryd( 2p)     0.00012       2.30763
 
   199    H    9  S      Val( 1S)     0.78544       0.05234
   200    H    9  S      Ryd( 2S)     0.00036       1.03605
   201    H    9  S      Ryd( 3S)     0.00018       1.74491
   202    H    9  px     Ryd( 2p)     0.00014       2.85092
   203    H    9  py     Ryd( 2p)     0.00029       2.88401
   204    H    9  pz     Ryd( 2p)     0.00009       2.27209
 
   205    H   10  S      Val( 1S)     0.78535       0.05304
   206    H   10  S      Ryd( 2S)     0.00054       1.37748
   207    H   10  S      Ryd( 3S)     0.00013       1.57103
   208    H   10  px     Ryd( 2p)     0.00018       2.86935
   209    H   10  py     Ryd( 2p)     0.00031       2.90284
   210    H   10  pz     Ryd( 2p)     0.00012       2.30770
 
   211    C   11  S      Cor( 1S)     1.99917     -10.38704
   212    C   11  S      Val( 2S)     0.92152      -0.21402
   213    C   11  S      Ryd( 3S)     0.00074       1.34419
   214    C   11  S      Ryd( 4S)     0.00015       1.54419
   215    C   11  S      Ryd( 5S)     0.00000      21.32871
   216    C   11  px     Val( 2p)     1.03074      -0.05754
   217    C   11  px     Ryd( 3p)     0.00460       1.35368
   218    C   11  px     Ryd( 4p)     0.00025       2.10864
   219    C   11  py     Val( 2p)     1.05922      -0.06414
   220    C   11  py     Ryd( 3p)     0.00265       1.06637
   221    C   11  py     Ryd( 4p)     0.00027       2.37342
   222    C   11  pz     Val( 2p)     0.99228      -0.10019
   223    C   11  pz     Ryd( 3p)     0.00211       0.76358
   224    C   11  pz     Ryd( 4p)     0.00049       1.55154
   225    C   11  dxy    Ryd( 3d)     0.00220       1.83067
   226    C   11  dxy    Ryd( 4d)     0.00085       3.38790
   227    C   11  dxz    Ryd( 3d)     0.00051       1.29443
   228    C   11  dxz    Ryd( 4d)     0.00038       3.28722
   229    C   11  dyz    Ryd( 3d)     0.00014       1.52978
   230    C   11  dyz    Ryd( 4d)     0.00034       3.33360
   231    C   11  dx2y2  Ryd( 3d)     0.00147       2.05654
   232    C   11  dx2y2  Ryd( 4d)     0.00057       3.39881
   233    C   11  dz2    Ryd( 3d)     0.00018       1.62728
   234    C   11  dz2    Ryd( 4d)     0.00020       3.39269
   235    C   11  f(0)   Ryd( 4f)     0.00015       3.50823
   236    C   11  f(C1)  Ryd( 4f)     0.00012       3.51579
   237    C   11  f(S1)  Ryd( 4f)     0.00016       3.50038
   238    C   11  f(C2)  Ryd( 4f)     0.00006       3.60479
   239    C   11  f(S2)  Ryd( 4f)     0.00005       3.68399
   240    C   11  f(C3)  Ryd( 4f)     0.00002       4.30710
   241    C   11  f(S3)  Ryd( 4f)     0.00007       4.11970
 
   242    C   12  S      Cor( 1S)     1.99914     -10.37548
   243    C   12  S      Val( 2S)     0.96807      -0.22298
   244    C   12  S      Ryd( 3S)     0.00091       1.21204
   245    C   12  S      Ryd( 4S)     0.00016       1.39239
   246    C   12  S      Ryd( 5S)     0.00001      21.63195
   247    C   12  px     Val( 2p)     1.07812      -0.06319
   248    C   12  px     Ryd( 3p)     0.00360       1.13475
   249    C   12  px     Ryd( 4p)     0.00032       2.34444
   250    C   12  py     Val( 2p)     1.12507      -0.07158
   251    C   12  py     Ryd( 3p)     0.00349       1.09375
   252    C   12  py     Ryd( 4p)     0.00020       2.20081
   253    C   12  pz     Val( 2p)     1.01932      -0.10847
   254    C   12  pz     Ryd( 3p)     0.00157       0.74725
   255    C   12  pz     Ryd( 4p)     0.00041       1.53161
   256    C   12  dxy    Ryd( 3d)     0.00134       1.87166
   257    C   12  dxy    Ryd( 4d)     0.00071       3.49497
   258    C   12  dxz    Ryd( 3d)     0.00033       1.49527
   259    C   12  dxz    Ryd( 4d)     0.00028       3.00168
   260    C   12  dyz    Ryd( 3d)     0.00052       1.50183
   261    C   12  dyz    Ryd( 4d)     0.00012       3.03023
   262    C   12  dx2y2  Ryd( 3d)     0.00169       1.82097
   263    C   12  dx2y2  Ryd( 4d)     0.00032       3.41374
   264    C   12  dz2    Ryd( 3d)     0.00061       1.57722
   265    C   12  dz2    Ryd( 4d)     0.00006       3.19911
   266    C   12  f(0)   Ryd( 4f)     0.00024       3.43806
   267    C   12  f(C1)  Ryd( 4f)     0.00015       3.58753
   268    C   12  f(S1)  Ryd( 4f)     0.00019       3.37667
   269    C   12  f(C2)  Ryd( 4f)     0.00008       3.55991
   270    C   12  f(S2)  Ryd( 4f)     0.00007       3.57091
   271    C   12  f(C3)  Ryd( 4f)     0.00008       4.24192
   272    C   12  f(S3)  Ryd( 4f)     0.00007       3.92852
 
   273    C   13  S      Cor( 1S)     1.99917     -10.37929
   274    C   13  S      Val( 2S)     0.96735      -0.22339
   275    C   13  S      Ryd( 3S)     0.00102       1.29979
   276    C   13  S      Ryd( 4S)     0.00019       1.57113
   277    C   13  S      Ryd( 5S)     0.00001      21.38554
   278    C   13  px     Val( 2p)     1.07659      -0.06248
   279    C   13  px     Ryd( 3p)     0.00317       1.18493
   280    C   13  px     Ryd( 4p)     0.00018       2.40817
   281    C   13  py     Val( 2p)     1.11609      -0.06826
   282    C   13  py     Ryd( 3p)     0.00381       1.06326
   283    C   13  py     Ryd( 4p)     0.00027       2.54839
   284    C   13  pz     Val( 2p)     1.00870      -0.10733
   285    C   13  pz     Ryd( 3p)     0.00159       0.72628
   286    C   13  pz     Ryd( 4p)     0.00035       1.60477
   287    C   13  dxy    Ryd( 3d)     0.00167       1.80653
   288    C   13  dxy    Ryd( 4d)     0.00067       3.54948
   289    C   13  dxz    Ryd( 3d)     0.00036       1.46043
   290    C   13  dxz    Ryd( 4d)     0.00027       3.09260
   291    C   13  dyz    Ryd( 3d)     0.00061       1.46890
   292    C   13  dyz    Ryd( 4d)     0.00014       3.10984
   293    C   13  dx2y2  Ryd( 3d)     0.00151       1.81924
   294    C   13  dx2y2  Ryd( 4d)     0.00044       3.47208
   295    C   13  dz2    Ryd( 3d)     0.00081       1.52991
   296    C   13  dz2    Ryd( 4d)     0.00006       3.27453
   297    C   13  f(0)   Ryd( 4f)     0.00026       3.45725
   298    C   13  f(C1)  Ryd( 4f)     0.00013       3.57886
   299    C   13  f(S1)  Ryd( 4f)     0.00022       3.40114
   300    C   13  f(C2)  Ryd( 4f)     0.00007       3.56123
   301    C   13  f(S2)  Ryd( 4f)     0.00008       3.58398
   302    C   13  f(C3)  Ryd( 4f)     0.00012       4.21073
   303    C   13  f(S3)  Ryd( 4f)     0.00007       3.96409
 
   304    C   14  S      Cor( 1S)     1.99911     -10.38692
   305    C   14  S      Val( 2S)     0.90905      -0.19697
   306    C   14  S      Ryd( 3S)     0.00081       1.46240
   307    C   14  S      Ryd( 4S)     0.00017       1.65352
   308    C   14  S      Ryd( 5S)     0.00000      21.36771
   309    C   14  px     Val( 2p)     1.04234      -0.05379
   310    C   14  px     Ryd( 3p)     0.00580       1.28052
   311    C   14  px     Ryd( 4p)     0.00044       1.87014
   312    C   14  py     Val( 2p)     1.07001      -0.07141
   313    C   14  py     Ryd( 3p)     0.00420       1.17178
   314    C   14  py     Ryd( 4p)     0.00054       1.49440
   315    C   14  pz     Val( 2p)     1.02129      -0.10457
   316    C   14  pz     Ryd( 3p)     0.00188       0.83666
   317    C   14  pz     Ryd( 4p)     0.00017       1.33377
   318    C   14  dxy    Ryd( 3d)     0.00152       2.31832
   319    C   14  dxy    Ryd( 4d)     0.00044       3.45613
   320    C   14  dxz    Ryd( 3d)     0.00037       1.36215
   321    C   14  dxz    Ryd( 4d)     0.00028       3.36556
   322    C   14  dyz    Ryd( 3d)     0.00022       1.50579
   323    C   14  dyz    Ryd( 4d)     0.00032       3.37953
   324    C   14  dx2y2  Ryd( 3d)     0.00118       2.39483
   325    C   14  dx2y2  Ryd( 4d)     0.00061       3.48276
   326    C   14  dz2    Ryd( 3d)     0.00039       1.73168
   327    C   14  dz2    Ryd( 4d)     0.00026       3.55374
   328    C   14  f(0)   Ryd( 4f)     0.00010       3.61982
   329    C   14  f(C1)  Ryd( 4f)     0.00008       3.72614
   330    C   14  f(S1)  Ryd( 4f)     0.00009       3.55729
   331    C   14  f(C2)  Ryd( 4f)     0.00005       3.68503
   332    C   14  f(S2)  Ryd( 4f)     0.00004       3.76043
   333    C   14  f(C3)  Ryd( 4f)     0.00009       4.30435
   334    C   14  f(S3)  Ryd( 4f)     0.00006       4.25941
 
   335    C   15  S      Cor( 1S)     1.99917     -10.37931
   336    C   15  S      Val( 2S)     0.96741      -0.22343
   337    C   15  S      Ryd( 3S)     0.00102       1.29994
   338    C   15  S      Ryd( 4S)     0.00019       1.57388
   339    C   15  S      Ryd( 5S)     0.00001      21.38571
   340    C   15  px     Val( 2p)     1.07659      -0.06247
   341    C   15  px     Ryd( 3p)     0.00317       1.18491
   342    C   15  px     Ryd( 4p)     0.00018       2.40694
   343    C   15  py     Val( 2p)     1.11550      -0.06830
   344    C   15  py     Ryd( 3p)     0.00379       1.06297
   345    C   15  py     Ryd( 4p)     0.00027       2.54589
   346    C   15  pz     Val( 2p)     1.00927      -0.10728
   347    C   15  pz     Ryd( 3p)     0.00161       0.72643
   348    C   15  pz     Ryd( 4p)     0.00035       1.60760
   349    C   15  dxy    Ryd( 3d)     0.00167       1.80608
   350    C   15  dxy    Ryd( 4d)     0.00067       3.54966
   351    C   15  dxz    Ryd( 3d)     0.00036       1.46054
   352    C   15  dxz    Ryd( 4d)     0.00027       3.09306
   353    C   15  dyz    Ryd( 3d)     0.00061       1.47003
   354    C   15  dyz    Ryd( 4d)     0.00014       3.11184
   355    C   15  dx2y2  Ryd( 3d)     0.00151       1.81755
   356    C   15  dx2y2  Ryd( 4d)     0.00044       3.47201
   357    C   15  dz2    Ryd( 3d)     0.00081       1.52922
   358    C   15  dz2    Ryd( 4d)     0.00006       3.27402
   359    C   15  f(0)   Ryd( 4f)     0.00026       3.45805
   360    C   15  f(C1)  Ryd( 4f)     0.00013       3.57813
   361    C   15  f(S1)  Ryd( 4f)     0.00022       3.40016
   362    C   15  f(C2)  Ryd( 4f)     0.00007       3.56320
   363    C   15  f(S2)  Ryd( 4f)     0.00008       3.58515
   364    C   15  f(C3)  Ryd( 4f)     0.00012       4.20995
   365    C   15  f(S3)  Ryd( 4f)     0.00007       3.96188
 
   366    C   16  S      Cor( 1S)     1.99914     -10.37547
   367    C   16  S      Val( 2S)     0.96807      -0.22297
   368    C   16  S      Ryd( 3S)     0.00091       1.21412
   369    C   16  S      Ryd( 4S)     0.00016       1.39690
   370    C   16  S      Ryd( 5S)     0.00001      21.63119
   371    C   16  px     Val( 2p)     1.07813      -0.06319
   372    C   16  px     Ryd( 3p)     0.00359       1.13475
   373    C   16  px     Ryd( 4p)     0.00032       2.34345
   374    C   16  py     Val( 2p)     1.12315      -0.07144
   375    C   16  py     Ryd( 3p)     0.00352       1.09229
   376    C   16  py     Ryd( 4p)     0.00020       2.18843
   377    C   16  pz     Val( 2p)     1.02127      -0.10859
   378    C   16  pz     Ryd( 3p)     0.00155       0.74864
   379    C   16  pz     Ryd( 4p)     0.00041       1.54242
   380    C   16  dxy    Ryd( 3d)     0.00133       1.87177
   381    C   16  dxy    Ryd( 4d)     0.00072       3.49311
   382    C   16  dxz    Ryd( 3d)     0.00034       1.49456
   383    C   16  dxz    Ryd( 4d)     0.00027       3.00441
   384    C   16  dyz    Ryd( 3d)     0.00051       1.50507
   385    C   16  dyz    Ryd( 4d)     0.00012       3.03451
   386    C   16  dx2y2  Ryd( 3d)     0.00171       1.81739
   387    C   16  dx2y2  Ryd( 4d)     0.00032       3.41644
   388    C   16  dz2    Ryd( 3d)     0.00060       1.57647
   389    C   16  dz2    Ryd( 4d)     0.00007       3.19346
   390    C   16  f(0)   Ryd( 4f)     0.00024       3.43902
   391    C   16  f(C1)  Ryd( 4f)     0.00015       3.59055
   392    C   16  f(S1)  Ryd( 4f)     0.00019       3.37651
   393    C   16  f(C2)  Ryd( 4f)     0.00008       3.56055
   394    C   16  f(S2)  Ryd( 4f)     0.00007       3.58016
   395    C   16  f(C3)  Ryd( 4f)     0.00008       4.22966
   396    C   16  f(S3)  Ryd( 4f)     0.00007       3.92737
 
   397    H   17  S      Val( 1S)     0.78567       0.05327
   398    H   17  S      Ryd( 2S)     0.00058       1.36616
   399    H   17  S      Ryd( 3S)     0.00014       1.58150
   400    H   17  px     Ryd( 2p)     0.00019       2.88406
   401    H   17  py     Ryd( 2p)     0.00031       2.90147
   402    H   17  pz     Ryd( 2p)     0.00012       2.30818
 
   403    H   18  S      Val( 1S)     0.78567       0.05325
   404    H   18  S      Ryd( 2S)     0.00058       1.36510
   405    H   18  S      Ryd( 3S)     0.00014       1.58193
   406    H   18  px     Ryd( 2p)     0.00019       2.88385
   407    H   18  py     Ryd( 2p)     0.00031       2.90032
   408    H   18  pz     Ryd( 2p)     0.00012       2.30933
 
   409    H   19  S      Val( 1S)     0.78545       0.05240
   410    H   19  S      Ryd( 2S)     0.00036       1.03591
   411    H   19  S      Ryd( 3S)     0.00018       1.74494
   412    H   19  px     Ryd( 2p)     0.00014       2.85080
   413    H   19  py     Ryd( 2p)     0.00029       2.88422
   414    H   19  pz     Ryd( 2p)     0.00009       2.27232
 
   415    C   20  S      Cor( 1S)     1.99945     -10.38290
   416    C   20  S      Val( 2S)     1.09949      -0.31248
   417    C   20  S      Ryd( 3S)     0.00061       1.19832
   418    C   20  S      Ryd( 4S)     0.00005       1.75489
   419    C   20  S      Ryd( 5S)     0.00000      21.81947
   420    C   20  px     Val( 2p)     1.07135      -0.10208
   421    C   20  px     Ryd( 3p)     0.00044       0.75552
   422    C   20  px     Ryd( 4p)     0.00041       2.27811
   423    C   20  py     Val( 2p)     1.22121      -0.11934
   424    C   20  py     Ryd( 3p)     0.00146       0.85833
   425    C   20  py     Ryd( 4p)     0.00008       1.65322
   426    C   20  pz     Val( 2p)     1.21668      -0.11956
   427    C   20  pz     Ryd( 3p)     0.00042       0.77463
   428    C   20  pz     Ryd( 4p)     0.00011       1.65317
   429    C   20  dxy    Ryd( 3d)     0.00042       1.57083
   430    C   20  dxy    Ryd( 4d)     0.00007       2.88419
   431    C   20  dxz    Ryd( 3d)     0.00061       1.47467
   432    C   20  dxz    Ryd( 4d)     0.00004       2.79278
   433    C   20  dyz    Ryd( 3d)     0.00132       1.60555
   434    C   20  dyz    Ryd( 4d)     0.00007       2.91598
   435    C   20  dx2y2  Ryd( 3d)     0.00295       1.60747
   436    C   20  dx2y2  Ryd( 4d)     0.00011       3.07374
   437    C   20  dz2    Ryd( 3d)     0.00178       1.60582
   438    C   20  dz2    Ryd( 4d)     0.00007       2.99934
   439    C   20  f(0)   Ryd( 4f)     0.00003       3.35485
   440    C   20  f(C1)  Ryd( 4f)     0.00007       3.63820
   441    C   20  f(S1)  Ryd( 4f)     0.00010       3.51787
   442    C   20  f(C2)  Ryd( 4f)     0.00002       3.44403
   443    C   20  f(S2)  Ryd( 4f)     0.00003       3.55843
   444    C   20  f(C3)  Ryd( 4f)     0.00010       3.67358
   445    C   20  f(S3)  Ryd( 4f)     0.00006       3.68893
 
   446    H   21  S      Val( 1S)     0.78556       0.03307
   447    H   21  S      Ryd( 2S)     0.00047       0.86354
   448    H   21  S      Ryd( 3S)     0.00015       1.68760
   449    H   21  px     Ryd( 2p)     0.00009       2.51981
   450    H   21  py     Ryd( 2p)     0.00012       2.45077
   451    H   21  pz     Ryd( 2p)     0.00016       2.56477
 
   452    H   22  S      Val( 1S)     0.78016       0.03290
   453    H   22  S      Ryd( 2S)     0.00056       0.89413
   454    H   22  S      Ryd( 3S)     0.00017       1.62007
   455    H   22  px     Ryd( 2p)     0.00010       2.46354
   456    H   22  py     Ryd( 2p)     0.00008       2.24524
   457    H   22  pz     Ryd( 2p)     0.00021       2.76543
 
   458    H   23  S      Val( 1S)     0.78572       0.03306
   459    H   23  S      Ryd( 2S)     0.00046       0.87704
   460    H   23  S      Ryd( 3S)     0.00015       1.68100
   461    H   23  px     Ryd( 2p)     0.00009       2.52039
   462    H   23  py     Ryd( 2p)     0.00020       2.80099
   463    H   23  pz     Ryd( 2p)     0.00007       2.21503
 
   464    H   24  S      Val( 1S)     0.78783       0.04991
   465    H   24  S      Ryd( 2S)     0.00053       1.29084
   466    H   24  S      Ryd( 3S)     0.00019       1.57306
   467    H   24  px     Ryd( 2p)     0.00014       2.85865
   468    H   24  py     Ryd( 2p)     0.00030       2.90822
   469    H   24  pz     Ryd( 2p)     0.00010       2.29031
 
   470    H   25  S      Val( 1S)     0.78784       0.04993
   471    H   25  S      Ryd( 2S)     0.00054       1.29102
   472    H   25  S      Ryd( 3S)     0.00019       1.57351
   473    H   25  px     Ryd( 2p)     0.00014       2.85862
   474    H   25  py     Ryd( 2p)     0.00031       2.90583
   475    H   25  pz     Ryd( 2p)     0.00009       2.29267

 WARNING:  Population inversion found on atom  C    6
           Population inversion found on atom  C   11
           Population inversion found on atom  C   14


 Summary of Natural Population Analysis:                  
                                                          
                                       Natural Population 
                Natural  -----------------------------------------------
    Atom  No    Charge         Core      Valence    Rydberg      Total
 -----------------------------------------------------------------------
[...]
 0.00004135,0.00000736,0.00003099,-0.00043615,-0.00002839,0.00029863,0.
 00000007,-0.00000980,-0.00000446,-0.00001268,-0.00001951,0.00005860,-0
 .00436507,-0.00357242,0.00187631,0.00587461,-0.01508765,0.00798029,-0.
 03429646,0.06323483,-0.06961348,-0.00812442,0.02181453,-0.00218125,-0.
 00591104,-0.00027837,-0.00138290,-0.00028531,-0.00073170,-0.00112840,0
 .04211018,-0.06817108,0.06600016,0.00031888,0.00079490,-0.00058125,-0.
 00011502,-0.00049477,0.00033759,-0.00004015,0.00010689,-0.00016688,0.0
 0010259,-0.00007023,0.00025451,0.00010303,-0.00039840,-0.00006434,-0.0
 0182597,-0.00050893,0.00216430,-0.00000272,-0.00004665,0.00001666,-0.0
 0006716,-0.00006400,0.00003589,0.00003992,0.00003491,0.00000994,-0.000
 00873,0.00016710,0.00071073,0.00510885,-0.00092347,-0.00344975,-0.0001
 3974,-0.00018650,0.00062646,0.00394275,0.00253862,-0.00239432,-0.00278
 688,-0.00114492,-0.00873978,-0.16247200,0.02360002,-0.14769230,-0.0020
 6763,0.00270217,-0.00624532,-0.00007226,-0.00004861,-0.00049760,0.1632
 5588,-0.00002252,-0.00037521,0.00000960,-0.00033175,-0.00031843,-0.000
 26506,0.00003287,0.00022470,-0.00031549,0.00013244,0.00023528,0.000274
 91,-0.00020816,-0.00043041,0.00002567,0.00007053,0.00157190,0.00105096
 ,0.00003805,0.00003237,-0.00002301,0.00006343,0.00006153,-0.00006402,0
 .00004066,-0.00002158,0.00000651,0.00063853,-0.00064544,-0.00085501,-0
 .00085363,-0.00353158,-0.00303911,-0.00007851,-0.00141230,-0.00028816,
 0.00218491,-0.00517651,0.00081095,0.01795499,0.00129191,0.02156468,0.0
 2231297,-0.06241377,0.02361483,-0.01663138,0.00727586,-0.01986061,0.00
 098677,-0.00003383,0.00123493,-0.02538182,0.06256802,0.00032327,-0.001
 01491,-0.00019285,0.00027132,0.00037799,0.00010700,-0.00009693,-0.0002
 2864,0.00034972,-0.00017114,-0.00013657,-0.00048357,0.00030277,0.00096
 530,0.00012826,0.00152152,-0.00124432,-0.00200610,-0.00003431,0.000010
 53,0.00001424,0.00003125,-0.00001068,0.00000920,0.00005219,-0.00002138
 ,-0.00001285,0.00021005,-0.00111318,-0.00044084,-0.00353788,-0.0037278
 1,0.00282244,0.00066866,-0.00006840,0.00026019,-0.00262158,0.00120330,
 0.00302995,-0.00552047,0.00057517,-0.00274699,-0.14689180,0.02393812,-
 0.21255149,-0.00998105,0.00374114,-0.00856572,-0.00028490,-0.00002893,
 -0.00017009,0.16320750,-0.02370627,0.22257243,-0.00065975,0.00030543,-
 0.00018842,0.00666830,-0.00191029,-0.00140935,0.00390505,0.00296282,-0
 .00219657,-0.05294673,-0.05747395,0.02779699,0.00130080,-0.00789438,0.
 00547302,0.00656276,-0.00304275,-0.00196317,-0.00350362,0.00120397,0.0
 0060519,-0.00366103,0.00148531,0.00030174,0.00012790,0.00012980,-0.000
 12915,-0.00106855,0.00031767,0.00014241,0.00001275,0.00000211,0.000006
 36,0.00002073,-0.00000998,-0.00002673,-0.00008053,-0.00003907,-0.00001
 980,0.00012214,-0.00022270,0.00035337,-0.00014149,-0.00014985,-0.00005
 694,0.00001827,-0.00003342,-0.00004660,-0.00002658,-0.00006491,-0.0000
 1234,-0.00003347,0.00000204,-0.00000486,0.04340264,0.00017441,0.000170
 01,-0.00100278,-0.00157104,0.00245843,0.00019083,-0.00037583,0.0025029
 8,-0.00120288,-0.05754609,-0.26220158,0.11661820,-0.00474115,-0.016529
 55,0.01439229,-0.00336024,-0.00164555,-0.00344293,0.00134537,0.0002246
 7,0.00026463,0.00137890,0.00049468,-0.00036855,-0.00004734,-0.00000438
 ,-0.00014556,0.00033260,-0.00015202,0.00004852,0.00000850,0.00000284,-
 0.00000293,0.00000050,-0.00001003,-0.00003233,0.00007079,-0.00008427,0
 .00000108,0.00004284,-0.00052781,0.00103333,-0.00018096,-0.00016764,-0
 .00027322,0.00007042,-0.00006408,0.00000445,-0.00001783,0.00003033,0.0
 0002195,0.00000284,0.00000910,0.00003063,0.06446651,0.27558606,-0.0003
 2187,-0.00094521,-0.00098498,-0.00150004,-0.00038633,-0.00574256,0.007
 41030,0.02810545,-0.00928092,0.02741595,0.11679547,-0.12574402,-0.0038
 2043,-0.01493186,0.01175905,-0.00193267,-0.00308742,-0.00074109,0.0003
 2491,-0.00058391,0.00099367,0.00061011,0.00036324,0.00073603,0.0003327
 5,0.00139678,-0.00061499,0.00014369,0.00003233,0.00008053,-0.00001102,
 0.00000226,-0.00000241,-0.00001028,0.00000310,-0.00001926,0.00006645,0
 .00002388,-0.00000041,-0.00005149,-0.00052804,0.00059802,-0.00007450,-
 0.00013873,-0.00015422,0.00006266,-0.00003303,0.00001969,-0.00003253,0
 .00001853,0.00000198,0.00000598,-0.00000264,0.00001225,-0.02860647,-0.
 12608052,0.12909958,0.00003179,0.00004374,0.00000186,-0.00009030,-0.00
 014376,0.00006201,-0.00002764,0.00000309,-0.00019607,0.00007882,0.0000
 8912,0.00018831,-0.00006683,-0.00030679,-0.00019095,-0.00032271,0.0002
 9063,0.00064750,0.00001291,-0.00000943,-0.00000204,-0.00000688,-0.0000
 3208,0.00004168,-0.00001033,-0.00000199,-0.00001116,0.00002855,-0.0000
 2149,0.00004302,-0.09021246,-0.03043812,-0.02890486,0.00821567,0.00638
 385,0.00428012,0.00419746,0.00403037,-0.00387756,-0.00113595,-0.000684
 66,-0.00036045,0.00267435,0.00238892,-0.00404126,-0.00421624,-0.017846
 23,-0.01307512,0.00014654,0.00066176,0.00042492,-0.00015434,-0.0005552
 0,-0.00036522,-0.00001722,-0.00001829,0.00000154,0.54906556,-0.0000904
 0,-0.00001679,-0.00005365,-0.00001039,0.00000319,-0.00002138,-0.000004
 69,-0.00000622,-0.00005764,0.00004385,0.00005167,0.00006426,-0.0000247
 7,-0.00019188,-0.00000079,-0.00011934,0.00039449,0.00025082,0.00000208
 ,0.00000219,-0.00000381,0.00001201,0.00001109,-0.00002112,0.00000070,-
 0.00000313,-0.00000337,0.00002020,0.00000069,-0.00002935,-0.03303133,-
 0.17590979,-0.05564450,-0.01047361,-0.02906701,-0.01725963,0.00258668,
 -0.00126485,0.00266504,-0.00017782,-0.00120499,-0.00047619,0.00320826,
 0.00166734,0.00150062,-0.00196766,0.00287909,-0.00386949,-0.00039150,-
 0.00064099,-0.00047607,0.00016034,0.00046680,0.00049049,-0.00000452,-0
 .00000227,0.00000064,-0.03388237,0.52778428,-0.00002971,-0.00003076,-0
 .00015264,0.00011808,0.00018641,0.00002353,-0.00000601,-0.00006546,0.0
 0017288,-0.00005904,-0.00009801,-0.00013320,0.00010192,0.00014857,0.00
 009212,0.00034522,-0.00015740,-0.00007160,-0.00001324,0.00000683,0.000
 00869,-0.00003061,-0.00001199,0.00000607,0.00001298,0.00000722,0.00000
 959,-0.00006027,0.00001582,0.00000377,-0.03135443,-0.05808414,-0.11742
 818,0.00212092,0.00250958,0.00666051,-0.00301898,0.00199810,0.00175190
 ,0.00037428,0.00007338,-0.00075578,-0.00586036,0.00152578,0.00034817,-
 0.01173511,-0.02444385,-0.01278741,0.00005076,0.00051429,0.00037367,-0
 .00023646,-0.00080989,-0.00040030,0.00000978,0.00001192,-0.00000140,0.
 00522807,-0.03171862,0.55531608,0.00000330,0.00002168,0.00001331,0.000
 01192,0.00000306,-0.00000808,0.00000421,0.00000662,0.00001069,0.000003
 59,-0.00000947,-0.00000263,-0.00000540,-0.00000323,-0.00000064,-0.0000
 5845,-0.00004494,0.00003946,-0.00000236,0.00000313,0.00000075,-0.00000
 510,0.00000194,-0.00000507,0.00000107,0.00000197,0.00000367,-0.0000063
 0,0.00000513,-0.00000949,0.00849713,-0.01043477,0.00018094,-0.00041630
 ,-0.00101456,-0.00115095,-0.00027230,-0.00083530,-0.00013667,0.0003726
 4,-0.00033884,0.00027704,0.00030367,0.00045282,0.00021741,0.00041531,-
 0.00095764,-0.00033264,-0.00008829,-0.00012006,-0.00002230,-0.00002485
 ,0.00004213,0.00005213,0.00000087,0.00000186,-0.00000109,-0.17659840,0
 .13894118,-0.00477938,0.19026785,-0.00002044,-0.00007497,-0.00002109,-
 0.00001049,0.00001414,-0.00000124,-0.00000933,-0.00003052,-0.00000568,
 0.00000029,0.00000746,-0.00002850,-0.00002178,0.00000450,0.00000152,0.
 00005969,0.00012305,-0.00009527,-0.00000003,-0.00000453,-0.00000375,0.
 00001629,0.00001631,-0.00001177,-0.00000068,-0.00000614,-0.00000981,0.
 00000989,0.00000186,0.00000447,0.01764791,-0.02093073,0.00151319,-0.00
 178850,-0.00280799,-0.00385793,0.00005271,-0.00080490,0.00105836,-0.00
 005263,0.00030471,-0.00015162,-0.00065889,-0.00044528,0.00014913,0.000
 86306,0.00135167,0.00250157,-0.00013635,-0.00031692,-0.00016264,0.0000
 1186,0.00000838,-0.00002412,0.00000094,-0.00000847,0.00000038,0.136189
 47,-0.18678745,0.00363997,-0.14790528,0.20546688,-0.00001793,-0.000046
 94,-0.00002428,-0.00000484,0.00002274,0.00000582,-0.00000927,-0.000029
 56,-0.00000097,0.00002142,-0.00000806,-0.00001723,-0.00001025,-0.00003
 163,-0.00002433,-0.00003607,0.00011517,0.00010402,-0.00000202,-0.00000
 051,-0.00000108,-0.00001002,0.00000824,-0.00000552,-0.00000061,-0.0000
 0328,-0.00000573,0.00000780,0.00000179,-0.00000268,0.01232189,-0.01076
 640,-0.00023190,-0.00156386,-0.00164638,-0.00145415,0.00010315,-0.0001
 7227,0.00092984,-0.00010316,0.00000933,-0.00029471,0.00026831,0.000001
 06,0.00002445,0.00046367,-0.00085180,0.00106931,-0.00003719,-0.0001424
 0,-0.00010309,0.00000433,0.00002405,0.00000870,-0.00000088,-0.00000556
 ,-0.00000113,-0.00567798,0.00441726,-0.04847625,0.00673237,-0.00223420
 ,0.04746328,0.00002000,-0.00002235,0.00004440,-0.00000964,-0.00002994,
 -0.00000143,-0.00000308,-0.00000335,-0.00002146,0.00001862,-0.00000051
 ,-0.00000428,-0.00003285,-0.00000698,-0.00004415,-0.00009906,-0.000049
 52,0.00003145,-0.00000346,-0.00000261,-0.00000304,-0.00000240,0.000015
 60,-0.00000420,-0.00000421,-0.00000419,-0.00000744,-0.00000340,0.00000
 422,0.00000697,-0.00703745,-0.00520685,0.00129580,-0.00005353,0.001639
 24,-0.00007678,-0.00038376,-0.00067973,-0.00107913,0.00039180,-0.00020
 710,0.00063262,0.00044168,0.00033734,-0.00051407,0.00061657,-0.0010318
 1,-0.00053632,0.00001173,-0.00004116,-0.00005154,-0.00004875,-0.000041
 91,-0.00003786,-0.00000219,-0.00000751,-0.00000060,-0.23254071,-0.0777
 4176,0.09377248,-0.01850524,-0.00823605,0.00974081,0.25164718,0.000021
 39,-0.00007435,0.00002391,-0.00004936,-0.00004837,0.00001837,-0.000016
 24,-0.00002879,-0.00006990,0.00002649,0.00002471,0.00002248,-0.0000513
 2,-0.00006139,-0.00009360,-0.00005417,0.00007987,0.00008763,0.00000307
 ,-0.00000740,-0.00000448,0.00000661,0.00000617,0.00000640,-0.00000913,
 -0.00000683,-0.00001456,0.00001440,-0.00000051,0.00001864,-0.02299940,
 -0.01202209,0.00901159,-0.00029134,-0.00063907,-0.00170806,0.00134906,
 0.00026807,-0.00057341,-0.00059312,0.00042116,-0.00040078,0.00070966,-
 0.00121373,-0.00081729,0.00108478,0.00004771,0.00114013,-0.00005291,-0
 .00010335,0.00001271,-0.00003818,-0.00005661,-0.00006617,-0.00000741,-
 0.00001644,-0.00000011,-0.07998168,-0.07738199,0.04074673,0.01981269,0
 .00925927,-0.01081378,0.08854238,0.08513133,-0.00001388,-0.00005096,0.
 00000834,-0.00003341,-0.00002859,-0.00000002,-0.00000851,-0.00001301,-
 0.00005363,0.00002866,0.00002410,0.00002821,-0.00003916,-0.00007466,-0
 .00005280,0.00002753,0.00013681,0.00007039,0.00000082,-0.00000228,-0.0
 0000257,-0.00000005,0.00000785,0.00000037,-0.00000535,-0.00000624,-0.0
 0000890,0.00000851,-0.00000232,0.00000137,-0.01616715,-0.00710039,0.00
 771788,-0.00020811,0.00088577,0.00029902,-0.00009935,-0.00021269,-0.00
 095713,0.00026497,-0.00074032,0.00038531,0.00086456,0.00095429,-0.0003
 3264,-0.00023236,-0.00126972,-0.00105827,-0.00000237,-0.00002344,-0.00
 000871,-0.00007272,-0.00001829,-0.00001446,-0.00000382,-0.00000910,-0.
 00000039,0.09156446,0.03871643,-0.09011237,-0.00170634,-0.00089629,-0.
 00012501,-0.10085671,-0.04049073,0.09635731,0.00000923,-0.00000631,0.0
 0000292,0.00000082,0.00000277,-0.00000057,0.00000194,0.00000146,0.0000
 1213,-0.00001909,-0.00000957,-0.00000725,0.00000065,0.00002672,-0.0000
 0602,0.00007016,-0.00006552,-0.00006398,0.00000065,-0.00000208,-0.0000
 0018,0.00000979,-0.00000176,-0.00000133,-0.00000015,-0.00000090,-0.000
 00059,-0.00000460,0.00000071,0.00001160,-0.00478477,0.00190440,-0.0115
 3197,0.00034195,0.00113070,0.00068853,-0.00037301,-0.00021980,0.000261
 70,-0.00000019,0.00026154,-0.00001092,-0.00055287,-0.00028145,-0.00041
 905,0.00043871,-0.00195526,-0.00120768,0.00000725,0.00000083,0.0000064
 3,-0.00011545,-0.00014871,-0.00005617,0.00000078,-0.00000247,-0.000001
 03,-0.05522634,0.01407966,-0.04901055,-0.00394422,0.00397845,-0.021970
 53,0.00636768,-0.00663288,0.02699737,0.05702468,-0.00000028,-0.0000381
 8,-0.00003186,0.00001651,0.00003299,0.00002413,-0.00001333,-0.00004146
 ,0.00001541,0.00001085,-0.00002204,-0.00003108,-0.00000304,0.00000048,
 -0.00004012,0.00000704,0.00000672,0.00013259,-0.00000445,-0.00000004,0
 .00000134,-0.00001483,-0.00000004,0.00000357,0.00000024,-0.00000083,-0
 .00000374,-0.00001083,0.00000318,0.00000636,-0.00550106,0.00639188,-0.
 02719079,-0.00103356,0.00122816,-0.00075533,0.00003371,0.00032201,0.00
 004302,0.00004758,0.00002708,-0.00021052,-0.00122292,0.00029709,-0.000
 34640,-0.00054795,-0.00412430,-0.00147727,0.00000117,0.00002016,0.0000
 4928,-0.00012515,-0.00026023,-0.00014345,-0.00000038,-0.00000634,-0.00
 000187,0.01474750,-0.06291002,0.06293123,0.00231075,-0.00514276,0.0221
 7637,0.00292578,-0.00339033,0.01002637,-0.01198757,0.06784046,-0.00000
 062,-0.00004662,-0.00001577,-0.00000402,0.00001127,0.00001484,-0.00000
 951,-0.00003453,-0.00000497,0.00000791,-0.00001077,-0.00001742,-0.0000
 2566,-0.00001133,-0.00004946,0.00013365,0.00000650,0.00003673,-0.00000
 491,-0.00000450,-0.00000202,-0.00000294,0.00001216,0.00000028,-0.00000
 262,-0.00000342,-0.00000836,-0.00000696,0.00000497,0.00001568,-0.00334
 731,0.00390986,-0.01424992,-0.00043457,0.00233517,0.00131170,-0.000597
 81,-0.00059434,-0.00008499,0.00041852,-0.00031593,0.00042993,-0.000666
 23,0.00092286,0.00009238,-0.00018009,-0.00317221,-0.00101028,0.0000380
 5,-0.00001772,-0.00004675,-0.00004008,-0.00017760,-0.00013756,-0.00000
 362,-0.00001219,-0.00000100,-0.05015825,0.06020298,-0.29363884,0.00034
 509,-0.00015512,0.00139663,-0.00264385,0.00316056,-0.01236718,0.056185
 73,-0.06534311,0.31824446,-0.00013894,-0.00016244,-0.00004568,0.000015
 30,-0.00003912,-0.00003603,-0.00000307,-0.00000746,-0.00002500,0.00002
 546,-0.00000892,0.00000463,-0.00008666,-0.00006250,-0.00003166,-0.0000
 0572,0.00033977,-0.00032031,-0.00001202,-0.00000267,-0.00000133,-0.000
 02389,-0.00002685,-0.00004390,0.00000090,-0.00001618,-0.00001511,-0.00
 002712,-0.00000866,0.00001841,-0.00225106,-0.00021037,-0.00838688,-0.1
 5380732,0.02259520,-0.14431220,-0.00278593,0.00245854,-0.00674864,0.00
 525686,-0.00125431,-0.00332669,-0.00006138,0.00018951,0.00073371,0.003
 87937,0.00236009,-0.00292004,-0.00223517,-0.00061404,0.00238755,-0.000
 71650,-0.00010638,0.00048643,-0.00000605,-0.00001695,-0.00000414,-0.00
 217594,-0.00097102,0.00120026,0.00005077,0.00009193,0.00026238,-0.0002
 4216,-0.00039882,0.00008649,0.00048521,0.00038880,0.00075126,0.1550474
 7,-0.00010776,-0.00034438,-0.00009907,0.00005376,0.00002229,-0.0000906
 4,-0.00001408,-0.00002093,-0.00000836,0.00001214,-0.00002557,0.0000174
 3,0.00004085,-0.00000192,-0.00003575,-0.00055446,0.00066081,-0.0008273
 3,-0.00000432,-0.00000377,0.00000073,-0.00003625,-0.00000454,0.0000203
 3,-0.00001156,-0.00002768,-0.00002292,-0.00001038,0.00001647,0.0000000
 6,0.01787160,0.00096708,0.02218435,0.02227176,-0.06265670,0.02374415,-
 0.01662505,0.00701874,-0.02020718,-0.00103139,-0.00359832,-0.00295391,
 -0.00012982,-0.00144284,-0.00026476,0.00220596,-0.00517417,0.00092316,
 -0.00010090,0.00083208,0.00069677,-0.00009301,0.00010856,0.00005977,-0
 .00000912,-0.00001734,-0.00000533,-0.00001262,0.00139783,0.00156770,-0
 .00016189,0.00021087,-0.00025266,-0.00007641,-0.00026638,0.00002082,0.
 00006210,-0.00030237,-0.00068785,-0.02449796,0.06267224,-0.00003123,-0
 .00024303,-0.00001024,0.00003041,0.00004275,-0.00005454,-0.00001987,-0
 .00004556,-0.00002645,0.00000951,-0.00000619,0.00001890,0.00004185,-0.
 00002055,-0.00009629,-0.00037231,0.00058630,-0.00035667,-0.00000149,-0
 .00000712,-0.00000342,0.00000330,0.00004153,0.00003857,-0.00001375,-0.
 00002171,-0.00002078,0.00000459,0.00003497,-0.00000202,-0.00604186,-0.
 00114751,-0.00387608,-0.14445734,0.02399323,-0.21843680,-0.00976903,0.
 00387337,-0.00861158,-0.00353488,-0.00359602,0.00268197,0.00064331,-0.
 00025504,0.00015581,-0.00250028,0.00137919,0.00345938,0.00238771,0.000
 14287,-0.00105127,0.00047937,0.00008150,-0.00048767,-0.00000938,-0.000
 02043,-0.00000291,0.00267250,-0.00067397,-0.00044086,-0.00001205,-0.00
 025200,0.00007294,0.00012847,0.00063789,0.00012468,-0.00003374,0.00048
 772,0.00007816,0.16069896,-0.02503671,0.22700825,-0.00006795,0.0000465
 5,0.00008043,0.00000852,0.00000063,-0.00001427,0.00000300,-0.00000132,
 -0.00002013,-0.00000311,0.00000238,0.00006596,-0.00009455,-0.00000861,
 -0.00005890,0.00033399,-0.00031993,0.00015211,-0.00000596,0.00000361,0
 .00000089,-0.00000708,0.00000132,0.00003436,0.00000182,-0.00000079,-0.
 00000040,0.00003087,0.00005773,0.00000005,-0.00165572,0.01870424,-0.00
 403723,0.00170459,0.00043422,-0.00592638,-0.00076426,-0.00069366,-0.00
 030611,0.00457252,-0.00149072,-0.00432424,0.00623068,-0.00916826,0.002
 48605,-0.07801587,0.08668124,-0.03499155,-0.00064376,-0.00004389,0.000
 57787,-0.00218024,-0.00014036,0.00247707,0.00000424,-0.00000985,-0.000
 00616,-0.00164937,-0.00016377,0.00285938,-0.00000514,-0.00008200,-0.00
 048155,-0.00054337,-0.00039460,-0.00039407,0.00026118,-0.00002456,0.00
 024884,-0.00018240,0.00095884,-0.00030278,0.07266738,-0.00006553,-0.00
 009984,0.00000974,-0.00002534,0.00002332,-0.00001549,-0.00001606,-0.00
 005519,-0.00003300,-0.00005844,-0.00003687,0.00007364,-0.00009507,-0.0
 0021111,-0.00031290,0.00063274,-0.00053608,0.00082190,0.00000264,-0.00
 000910,-0.00000776,0.00002749,0.00000758,0.00001816,-0.00000548,-0.000
 01985,-0.00002628,0.00003416,0.00000978,0.00000293,0.00047851,-0.00125
 935,-0.00065429,0.00069955,0.00184061,-0.00009496,-0.00051900,0.000414
 68,-0.00046237,-0.00163939,-0.00182928,-0.00400345,0.00964964,-0.01840
 242,0.00848658,0.08681480,-0.28766282,0.06413421,-0.00005618,-0.000102
 04,0.00012455,-0.00059502,0.00082149,0.00014240,-0.00001385,-0.0000413
 5,-0.00001706,-0.00089372,0.00072871,-0.00046342,0.00022102,0.00059153
 ,0.00022942,-0.00007482,0.00007933,0.00016660,-0.00013507,0.00006872,0
 .00002090,-0.00001917,-0.00002007,0.00002451,-0.09434843,0.30569963,0.
 00000194,-0.00000636,-0.00002043,-0.00002041,0.00000545,-0.00001559,0.
 00000179,-0.00000504,-0.00000186,-0.00005455,-0.00003524,0.00002908,-0
 .00004036,-0.00020158,-0.00018011,0.00026043,-0.00053429,0.00051468,0.
 00000564,-0.00000238,-0.00000361,0.00001589,-0.00000432,-0.00001346,-0
 .00000225,-0.00000945,-0.00000872,0.00001348,-0.00004062,-0.00003062,-
 0.00822576,0.02229155,-0.00226696,-0.00611223,-0.00044384,-0.00139102,
 -0.00020756,-0.00058721,-0.00099786,-0.00428718,-0.00332853,0.00160215
 ,0.00608381,-0.01571999,0.00778977,-0.03419070,0.06382961,-0.06938874,
 0.00058857,0.00010444,-0.00035297,0.00232754,0.00072658,-0.00110390,-0
 .00001077,-0.00001887,-0.00000911,0.00170496,0.00200102,-0.00036813,0.
 00029445,-0.00095756,-0.00030692,0.00022986,0.00016586,0.00010121,0.00
 015514,-0.00032184,0.00001371,-0.00041249,0.00125719,-0.00016109,0.041
 88075,-0.06816458,0.06657052\\-0.00000211,-0.00000384,0.00001604,-0.00
 000133,0.00000147,-0.00000398,0.00000527,0.00001213,0.00000706,0.00000
 040,-0.00000355,0.00000360,0.00000280,0.00001328,-0.00001414,0.0000056
 7,0.00000086,0.00000540,-0.00000231,-0.00000587,-0.00000372,-0.0000031
 5,-0.00000497,0.00000286,-0.00000022,-0.00000080,0.00000137,0.00000016
 ,0.00000010,-0.00000552,-0.00000103,-0.00002068,-0.00001196,0.00000677
 ,0.00001778,0.00002067,-0.00001912,0.00000626,-0.00002250,-0.00000315,
 -0.00000865,-0.00000297,0.00001297,-0.00001718,0.00001023,0.00000092,0
 .00002077,0.00000418,0.00000638,-0.00000094,0.00000665,-0.00000379,0.0
 0000682,-0.00000252,0.00000022,0.00000089,-0.00000144,0.00000201,-0.00
 002198,-0.00002266,-0.00000269,0.00000684,0.00000830,-0.00000178,0.000
 00321,0.00000289,-0.00000138,0.00000609,0.00000849,-0.00000315,-0.0000
 0232,-0.00000480,0.00000161,-0.00000571,-0.00000153\\\@
 The archive entry for this job was punched.


 ADVERTISING--  HE WHO HAS SOMETHING TO SELL AND GOES AND WHISPERS
                IN A WELL, IS NOT SO APT TO GET THE DOLLARS AS HE
                WHO CLIMBS A TREE AND HOLLERS.

                   -- FROM THE BACK OF A SUGAR PACKET
 Job cpu time:       0 days 16 hours 19 minutes 58.9 seconds.
 Elapsed time:       0 days  0 hours 31 minutes  8.0 seconds.
 File lengths (MBytes):  RWF=    496 Int=      0 D2E=      0 Chk=     19 Scr=      1
 Normal termination of Gaussian 16 at Tue Nov 14 11:24:58 2023.
