 Entering Gaussian System, Link 0=g16
 Input=ph_4ph_3_1_m062x.com
 Output=ph_4ph_3_1_m062x.log
 Initial command:
 /arc/software/Gaussian/g16.c01/l1.exe "/tmp/slurm/41771/Gau-23715.inp" -scrdir="/tmp/slurm/41771/"
 Entering Link 1 = /arc/software/Gaussian/g16.c01/l1.exe PID=     23716.
  
 Copyright (c) 1988-2019, Gaussian, Inc.  All Rights Reserved.
  
 This is part of the Gaussian(R) 16 program.  It is based on
 the Gaussian(R) 09 system (copyright 2009, Gaussian, Inc.),
 the Gaussian(R) 03 system (copyright 2003, Gaussian, Inc.),
 the Gaussian(R) 98 system (copyright 1998, Gaussian, Inc.),
 the Gaussian(R) 94 system (copyright 1995, Gaussian, Inc.),
 the Gaussian 92(TM) system (copyright 1992, Gaussian, Inc.),
 the Gaussian 90(TM) system (copyright 1990, Gaussian, Inc.),
 the Gaussian 88(TM) system (copyright 1988, Gaussian, Inc.),
 the Gaussian 86(TM) system (copyright 1986, Carnegie Mellon
 University), and the Gaussian 82(TM) system (copyright 1983,
 Carnegie Mellon University). Gaussian is a federally registered
 trademark of Gaussian, Inc.
  
 This software contains proprietary and confidential information,
 including trade secrets, belonging to Gaussian, Inc.
  
 This software is provided under written license and may be
 used, copied, transmitted, or stored only in accord with that
 written license.
  
 The following legend is applicable only to US Government
 contracts under FAR:
  
                    RESTRICTED RIGHTS LEGEND
  
 Use, reproduction and disclosure by the US Government is
 subject to restrictions as set forth in subparagraphs (a)
 and (c) of the Commercial Computer Software - Restricted
 Rights clause in FAR 52.227-19.
  
 Gaussian, Inc.
 340 Quinnipiac St., Bldg. 40, Wallingford CT 06492
  
  
 ---------------------------------------------------------------
 Warning -- This program may not be used in any manner that
 competes with the business of Gaussian, Inc. or will provide
 assistance to any competitor of Gaussian, Inc.  The licensee
 of this program is prohibited from giving any competitor of
 Gaussian, Inc. access to this program.  By using this program,
 the user acknowledges that Gaussian, Inc. is engaged in the
 business of creating and licensing software in the field of
 computational chemistry and represents and warrants to the
 licensee that it is not a competitor of Gaussian, Inc. and that
 it will not use this program in any manner prohibited above.
 ---------------------------------------------------------------
  

 Cite this work as:
 Gaussian 16, Revision C.01,
 M. J. Frisch, G. W. Trucks, H. B. Schlegel, G. E. Scuseria, 
 M. A. Robb, J. R. Cheeseman, G. Scalmani, V. Barone, 
 G. A. Petersson, H. Nakatsuji, X. Li, M. Caricato, A. V. Marenich, 
 J. Bloino, B. G. Janesko, R. Gomperts, B. Mennucci, H. P. Hratchian, 
 J. V. Ortiz, A. F. Izmaylov, J. L. Sonnenberg, D. Williams-Young, 
 F. Ding, F. Lipparini, F. Egidi, J. Goings, B. Peng, A. Petrone, 
 T. Henderson, D. Ranasinghe, V. G. Zakrzewski, J. Gao, N. Rega, 
 G. Zheng, W. Liang, M. Hada, M. Ehara, K. Toyota, R. Fukuda, 
 J. Hasegawa, M. Ishida, T. Nakajima, Y. Honda, O. Kitao, H. Nakai, 
 T. Vreven, K. Throssell, J. A. Montgomery, Jr., J. E. Peralta, 
 F. Ogliaro, M. J. Bearpark, J. J. Heyd, E. N. Brothers, K. N. Kudin, 
 V. N. Staroverov, T. A. Keith, R. Kobayashi, J. Normand, 
 K. Raghavachari, A. P. Rendell, J. C. Burant, S. S. Iyengar, 
 J. Tomasi, M. Cossi, J. M. Millam, M. Klene, C. Adamo, R. Cammi, 
 J. W. Ochterski, R. L. Martin, K. Morokuma, O. Farkas, 
 J. B. Foresman, and D. J. Fox, Gaussian, Inc., Wallingford CT, 2019.
 
 ******************************************
 Gaussian 16:  ES64L-G16RevC.01  3-Jul-2019
                14-Nov-2023 
 ******************************************
 %nprocshared=32
 Will use up to   32 processors via shared memory.
 %mem=8000MB
 %chk=ph_4ph_3_1_m062x.chk
 -----------------------------------------
 # opt freq=noraman m062x def2tzvp pop=nbo
 -----------------------------------------
 1/18=20,19=15,26=3,38=1/1,3;
 2/9=110,12=2,17=6,18=5,40=1/2;
 3/5=44,7=101,11=2,25=1,30=1,71=1,74=-55/1,2,3;
 4//1;
 5/5=2,38=5/2;
 6/7=2,8=2,9=2,10=2,28=1,40=1/1,7;
 7//1,2,3,16;
 1/18=20,19=15,26=3/3(2);
 2/9=110/2;
 99//99;
 2/9=110/2;
 3/5=44,7=101,11=2,25=1,30=1,71=1,74=-55/1,2,3;
 4/5=5,16=3,69=1/1;
 5/5=2,38=5/2;
 7//1,2,3,16;
 1/18=20,19=15,26=3/3(-5);
 2/9=110/2;
 6/7=2,8=2,9=2,10=2,19=2,28=1,40=1/1,7;
 99/9=1/99;
 ------------
 Structure697
 ------------
 Symbolic Z-matrix:
 Charge =  0 Multiplicity = 1
 C                    -11.0831  -4.9701    0.2651 
 C                    -12.1884  -5.6083   -0.2923 
 C                    -12.4252  -5.5065   -1.6603 
 C                    -11.566   -4.7715   -2.4723 
 C                    -10.4629  -4.134    -1.9095 
 C                    -10.2062  -4.2246   -0.5347 
 H                    -13.2819  -6.0014   -2.0949 
 H                    -9.7957   -3.5778   -2.5513 
 H                    -12.8599  -6.1768    0.3348 
 H                    -10.9169  -5.0449    1.3297 
 C                    -6.7827   -2.2469    1.202 
 C                    -7.5183   -1.639     0.1787 
 C                    -8.6224   -2.2769   -0.3813 
 C                    -9.0225   -3.5408    0.0658 
 C                    -8.287    -4.1487    1.089 
 C                    -7.1829   -3.5109    1.6491 
 H                    -7.2459   -0.6563   -0.1763 
 H                    -9.1797   -1.7734   -1.1572 
 H                    -8.5593   -5.1315    1.444 
 H                    -6.6256   -4.0144    2.425 
 H                    -11.7515  -4.6981   -3.5341 
 C                    -3.3801   -0.2813    2.9282 
 C                    -4.2393   -1.0163    3.7401 
 C                    -5.3423   -1.6539    3.1773 
 C                    -5.5991   -1.5631    1.8025 
 C                    -4.7222   -0.8176    1.0027 
 C                    -3.6169   -0.1794    1.5602 
 H                    -2.5234    0.2136    3.3628 
 H                    -4.0538   -1.0898    4.8019 
 H                    -6.0095   -2.2101    3.8191 
 H                    -4.8884   -0.7428   -0.0619 
 H                    -2.9455    0.3891    0.9331 
 

 GradGradGradGradGradGradGradGradGradGradGradGradGradGradGradGradGradGrad
 Berny optimization.
 Initialization pass.
                           ----------------------------
                           !    Initial Parameters    !
                           ! (Angstroms and Degrees)  !
 --------------------------                            --------------------------
 ! Name  Definition              Value          Derivative Info.                !
 --------------------------------------------------------------------------------
 ! R1    R(1,2)                  1.3927         estimate D2E/DX2                !
 ! R2    R(1,6)                  1.4016         estimate D2E/DX2                !
 ! R3    R(1,10)                 1.0801         estimate D2E/DX2                !
 ! R4    R(2,3)                  1.3921         estimate D2E/DX2                !
 ! R5    R(2,9)                  1.0804         estimate D2E/DX2                !
 ! R6    R(3,4)                  1.392          estimate D2E/DX2                !
 ! R7    R(3,7)                  1.0806         estimate D2E/DX2                !
 ! R8    R(4,5)                  1.3928         estimate D2E/DX2                !
 ! R9    R(4,21)                 1.0804         estimate D2E/DX2                !
 ! R10   R(5,6)                  1.4015         estimate D2E/DX2                !
 ! R11   R(5,8)                  1.08           estimate D2E/DX2                !
 ! R12   R(6,14)                 1.4931         estimate D2E/DX2                !
 ! R13   R(11,12)                1.3992         estimate D2E/DX2                !
 ! R14   R(11,16)                1.3992         estimate D2E/DX2                !
 ! R15   R(11,25)                1.493          estimate D2E/DX2                !
 ! R16   R(12,13)                1.3927         estimate D2E/DX2                !
 ! R17   R(12,17)                1.0798         estimate D2E/DX2                !
 ! R18   R(13,14)                1.3991         estimate D2E/DX2                !
 ! R19   R(13,18)                1.0799         estimate D2E/DX2                !
 ! R20   R(14,15)                1.3991         estimate D2E/DX2                !
 ! R21   R(15,16)                1.3927         estimate D2E/DX2                !
 ! R22   R(15,19)                1.0798         estimate D2E/DX2                !
 ! R23   R(16,20)                1.0799         estimate D2E/DX2                !
 ! R24   R(22,23)                1.392          estimate D2E/DX2                !
 ! R25   R(22,27)                1.3921         estimate D2E/DX2                !
 ! R26   R(22,28)                1.0806         estimate D2E/DX2                !
 ! R27   R(23,24)                1.3928         estimate D2E/DX2                !
 ! R28   R(23,29)                1.0804         estimate D2E/DX2                !
 ! R29   R(24,25)                1.4015         estimate D2E/DX2                !
 ! R30   R(24,30)                1.08           estimate D2E/DX2                !
 ! R31   R(25,26)                1.4016         estimate D2E/DX2                !
 ! R32   R(26,27)                1.3928         estimate D2E/DX2                !
 ! R33   R(26,31)                1.0801         estimate D2E/DX2                !
 ! R34   R(27,32)                1.0804         estimate D2E/DX2                !
 ! A1    A(2,1,6)              120.7897         estimate D2E/DX2                !
 ! A2    A(2,1,10)             119.0039         estimate D2E/DX2                !
 ! A3    A(6,1,10)             120.2003         estimate D2E/DX2                !
 ! A4    A(1,2,3)              119.6561         estimate D2E/DX2                !
 ! A5    A(1,2,9)              120.1364         estimate D2E/DX2                !
 ! A6    A(3,2,9)              120.2073         estimate D2E/DX2                !
 ! A7    A(2,3,4)              120.454          estimate D2E/DX2                !
 ! A8    A(2,3,7)              119.7746         estimate D2E/DX2                !
 ! A9    A(4,3,7)              119.7714         estimate D2E/DX2                !
 ! A10   A(3,4,5)              119.6563         estimate D2E/DX2                !
 ! A11   A(3,4,21)             120.2105         estimate D2E/DX2                !
 ! A12   A(5,4,21)             120.1329         estimate D2E/DX2                !
 ! A13   A(4,5,6)              120.7869         estimate D2E/DX2                !
 ! A14   A(4,5,8)              119.0033         estimate D2E/DX2                !
 ! A15   A(6,5,8)              120.2037         estimate D2E/DX2                !
 ! A16   A(1,6,5)              118.6571         estimate D2E/DX2                !
 ! A17   A(1,6,14)             120.6706         estimate D2E/DX2                !
 ! A18   A(5,6,14)             120.6723         estimate D2E/DX2                !
 ! A19   A(12,11,16)           118.4117         estimate D2E/DX2                !
 ! A20   A(12,11,25)           120.7932         estimate D2E/DX2                !
 ! A21   A(16,11,25)           120.7951         estimate D2E/DX2                !
 ! A22   A(11,12,13)           120.7881         estimate D2E/DX2                !
 ! A23   A(11,12,17)           120.2129         estimate D2E/DX2                !
 ! A24   A(13,12,17)           118.99           estimate D2E/DX2                !
 ! A25   A(12,13,14)           120.7972         estimate D2E/DX2                !
 ! A26   A(12,13,18)           118.9794         estimate D2E/DX2                !
 ! A27   A(14,13,18)           120.2145         estimate D2E/DX2                !
 ! A28   A(6,14,13)            120.7915         estimate D2E/DX2                !
 ! A29   A(6,14,15)            120.7911         estimate D2E/DX2                !
 ! A30   A(13,14,15)           118.4174         estimate D2E/DX2                !
 ! A31   A(14,15,16)           120.7912         estimate D2E/DX2                !
 ! A32   A(14,15,19)           120.2194         estimate D2E/DX2                !
 ! A33   A(16,15,19)           118.9803         estimate D2E/DX2                !
 ! A34   A(11,16,15)           120.7945         estimate D2E/DX2                !
 ! A35   A(11,16,20)           120.2114         estimate D2E/DX2                !
 ! A36   A(15,16,20)           118.9851         estimate D2E/DX2                !
 ! A37   A(23,22,27)           120.453          estimate D2E/DX2                !
 ! A38   A(23,22,28)           119.7747         estimate D2E/DX2                !
 ! A39   A(27,22,28)           119.7723         estimate D2E/DX2                !
 ! A40   A(22,23,24)           119.6599         estimate D2E/DX2                !
 ! A41   A(22,23,29)           120.2103         estimate D2E/DX2                !
 ! A42   A(24,23,29)           120.1296         estimate D2E/DX2                !
 ! A43   A(23,24,25)           120.7852         estimate D2E/DX2                !
 ! A44   A(23,24,30)           119.0036         estimate D2E/DX2                !
 ! A45   A(25,24,30)           120.2049         estimate D2E/DX2                !
 ! A46   A(11,25,24)           120.672          estimate D2E/DX2                !
 ! A47   A(11,25,26)           120.6696         estimate D2E/DX2                !
 ! A48   A(24,25,26)           118.6584         estimate D2E/DX2                !
 ! A49   A(25,26,27)           120.7859         estimate D2E/DX2                !
 ! A50   A(25,26,31)           120.2003         estimate D2E/DX2                !
 ! A51   A(27,26,31)           119.0076         estimate D2E/DX2                !
 ! A52   A(22,27,26)           119.6574         estimate D2E/DX2                !
 ! A53   A(22,27,32)           120.2126         estimate D2E/DX2                !
 ! A54   A(26,27,32)           120.1297         estimate D2E/DX2                !
 ! D1    D(6,1,2,3)              0.0742         estimate D2E/DX2                !
 ! D2    D(6,1,2,9)           -179.7391         estimate D2E/DX2                !
 ! D3    D(10,1,2,3)           179.175          estimate D2E/DX2                !
 ! D4    D(10,1,2,9)            -0.6383         estimate D2E/DX2                !
 ! D5    D(2,1,6,5)             -0.0382         estimate D2E/DX2                !
 ! D6    D(2,1,6,14)           179.9628         estimate D2E/DX2                !
 ! D7    D(10,1,6,5)          -179.1282         estimate D2E/DX2                !
 ! D8    D(10,1,6,14)            0.8728         estimate D2E/DX2                !
 ! D9    D(1,2,3,4)             -0.039          estimate D2E/DX2                !
 ! D10   D(1,2,3,7)            179.9634         estimate D2E/DX2                !
 ! D11   D(9,2,3,4)            179.7741         estimate D2E/DX2                !
 ! D12   D(9,2,3,7)             -0.2235         estimate D2E/DX2                !
 ! D13   D(2,3,4,5)             -0.0314         estimate D2E/DX2                !
 ! D14   D(2,3,4,21)           179.7757         estimate D2E/DX2                !
 ! D15   D(7,3,4,5)            179.9662         estimate D2E/DX2                !
 ! D16   D(7,3,4,21)            -0.2267         estimate D2E/DX2                !
 ! D17   D(3,4,5,6)              0.0679         estimate D2E/DX2                !
 ! D18   D(3,4,5,8)            179.1707         estimate D2E/DX2                !
 ! D19   D(21,4,5,6)          -179.7393         estimate D2E/DX2                !
 ! D20   D(21,4,5,8)            -0.6365         estimate D2E/DX2                !
 ! D21   D(4,5,6,1)             -0.0332         estimate D2E/DX2                !
 ! D22   D(4,5,6,14)           179.9658         estimate D2E/DX2                !
 ! D23   D(8,5,6,1)           -179.1253         estimate D2E/DX2                !
 ! D24   D(8,5,6,14)             0.8737         estimate D2E/DX2                !
 ! D25   D(1,6,14,13)         -141.8021         estimate D2E/DX2                !
 ! D26   D(1,6,14,15)           38.1981         estimate D2E/DX2                !
 ! D27   D(5,6,14,13)           38.1989         estimate D2E/DX2                !
 ! D28   D(5,6,14,15)         -141.8009         estimate D2E/DX2                !
 ! D29   D(16,11,12,13)          0.0016         estimate D2E/DX2                !
 ! D30   D(16,11,12,17)        178.8983         estimate D2E/DX2                !
 ! D31   D(25,11,12,13)       -179.9952         estimate D2E/DX2                !
 ! D32   D(25,11,12,17)         -1.0985         estimate D2E/DX2                !
 ! D33   D(12,11,16,15)         -0.0004         estimate D2E/DX2                !
 ! D34   D(12,11,16,20)        178.8958         estimate D2E/DX2                !
 ! D35   D(25,11,16,15)        179.9964         estimate D2E/DX2                !
 ! D36   D(25,11,16,20)         -1.1075         estimate D2E/DX2                !
 ! D37   D(12,11,25,24)        141.8116         estimate D2E/DX2                !
 ! D38   D(12,11,25,26)        -38.2003         estimate D2E/DX2                !
 ! D39   D(16,11,25,24)        -38.1851         estimate D2E/DX2                !
 ! D40   D(16,11,25,26)        141.803          estimate D2E/DX2                !
 ! D41   D(11,12,13,14)         -0.0024         estimate D2E/DX2                !
 ! D42   D(11,12,13,18)        178.9091         estimate D2E/DX2                !
 ! D43   D(17,12,13,14)       -178.9124         estimate D2E/DX2                !
 ! D44   D(17,12,13,18)         -0.0009         estimate D2E/DX2                !
 ! D45   D(12,13,14,6)        -179.9979         estimate D2E/DX2                !
 ! D46   D(12,13,14,15)          0.0019         estimate D2E/DX2                !
 ! D47   D(18,13,14,6)           1.1041         estimate D2E/DX2                !
 ! D48   D(18,13,14,15)       -178.8962         estimate D2E/DX2                !
 ! D49   D(6,14,15,16)         179.9991         estimate D2E/DX2                !
 ! D50   D(6,14,15,19)           1.107          estimate D2E/DX2                !
 ! D51   D(13,14,15,16)         -0.0007         estimate D2E/DX2                !
 ! D52   D(13,14,15,19)       -178.8928         estimate D2E/DX2                !
 ! D53   D(14,15,16,11)         -0.0001         estimate D2E/DX2                !
 ! D54   D(14,15,16,20)       -178.9095         estimate D2E/DX2                !
 ! D55   D(19,15,16,11)        178.9056         estimate D2E/DX2                !
 ! D56   D(19,15,16,20)         -0.0039         estimate D2E/DX2                !
 ! D57   D(27,22,23,24)          0.041          estimate D2E/DX2                !
 ! D58   D(27,22,23,29)       -179.7768         estimate D2E/DX2                !
 ! D59   D(28,22,23,24)       -179.9597         estimate D2E/DX2                !
 ! D60   D(28,22,23,29)          0.2225         estimate D2E/DX2                !
 ! D61   D(23,22,27,26)          0.0352         estimate D2E/DX2                !
 ! D62   D(23,22,27,32)       -179.7767         estimate D2E/DX2                !
 ! D63   D(28,22,27,26)       -179.9641         estimate D2E/DX2                !
 ! D64   D(28,22,27,32)          0.224          estimate D2E/DX2                !
 ! D65   D(22,23,24,25)         -0.0841         estimate D2E/DX2                !
 ! D66   D(22,23,24,30)       -179.1701         estimate D2E/DX2                !
 ! D67   D(29,23,24,25)        179.7338         estimate D2E/DX2                !
 ! D68   D(29,23,24,30)          0.6479         estimate D2E/DX2                !
 ! D69   D(23,24,25,11)       -179.9617         estimate D2E/DX2                !
 ! D70   D(23,24,25,26)          0.05           estimate D2E/DX2                !
 ! D71   D(30,24,25,11)         -0.8867         estimate D2E/DX2                !
 ! D72   D(30,24,25,26)        179.125          estimate D2E/DX2                !
 ! D73   D(11,25,26,27)       -179.9611         estimate D2E/DX2                !
 ! D74   D(11,25,26,31)         -0.8703         estimate D2E/DX2                !
 ! D75   D(24,25,26,27)          0.0272         estimate D2E/DX2                !
 ! D76   D(24,25,26,31)        179.118          estimate D2E/DX2                !
 ! D77   D(25,26,27,22)         -0.0696         estimate D2E/DX2                !
 ! D78   D(25,26,27,32)        179.7425         estimate D2E/DX2                !
 ! D79   D(31,26,27,22)       -179.1711         estimate D2E/DX2                !
 ! D80   D(31,26,27,32)          0.641          estimate D2E/DX2                !
 --------------------------------------------------------------------------------
 Trust Radius=3.00D-01 FncErr=1.00D-07 GrdErr=1.00D-06 EigMax=2.50D+02 EigMin=1.00D-04
 Number of steps in this run=    178 maximum allowed number of steps=    192.
 GradGradGradGradGradGradGradGradGradGradGradGradGradGradGradGradGradGrad

                          Input orientation:                          
 ---------------------------------------------------------------------
 Center     Atomic      Atomic             Coordinates (Angstroms)
 Number     Number       Type             X           Y           Z
 ---------------------------------------------------------------------
      1          6           0      -11.083100   -4.970100    0.265100
      2          6           0      -12.188400   -5.608300   -0.292300
      3          6           0      -12.425200   -5.506500   -1.660300
      4          6           0      -11.566000   -4.771500   -2.472300
      5          6           0      -10.462900   -4.134000   -1.909500
      6          6           0      -10.206200   -4.224600   -0.534700
      7          1           0      -13.281900   -6.001400   -2.094900
      8          1           0       -9.795700   -3.577800   -2.551300
      9          1           0      -12.859900   -6.176800    0.334800
     10          1           0      -10.916900   -5.044900    1.329700
     11          6           0       -6.782700   -2.246900    1.202000
     12          6           0       -7.518300   -1.639000    0.178700
     13          6           0       -8.622400   -2.276900   -0.381300
     14          6           0       -9.022500   -3.540800    0.065800
     15          6           0       -8.287000   -4.148700    1.089000
     16          6           0       -7.182900   -3.510900    1.649100
     17          1           0       -7.245900   -0.656300   -0.176300
     18          1           0       -9.179700   -1.773400   -1.157200
     19          1           0       -8.559300   -5.131500    1.444000
     20          1           0       -6.625600   -4.014400    2.425000
     21          1           0      -11.751500   -4.698100   -3.534100
     22          6           0       -3.380100   -0.281300    2.928200
     23          6           0       -4.239300   -1.016300    3.740100
     24          6           0       -5.342300   -1.653900    3.177300
     25          6           0       -5.599100   -1.563100    1.802500
     26          6           0       -4.722200   -0.817600    1.002700
     27          6           0       -3.616900   -0.179400    1.560200
     28          1           0       -2.523400    0.213600    3.362800
     29          1           0       -4.053800   -1.089800    4.801900
     30          1           0       -6.009500   -2.210100    3.819100
     31          1           0       -4.888400   -0.742800   -0.061900
     32          1           0       -2.945500    0.389100    0.933100
 ---------------------------------------------------------------------
                    Distance matrix (angstroms):
                    1          2          3          4          5
     1  C    0.000000
     2  C    1.392725   0.000000
     3  C    2.407514   1.392071   0.000000
     4  C    2.786753   2.416613   1.392047   0.000000
     5  C    2.410933   2.786799   2.407588   1.392832   0.000000
     6  C    1.401572   2.429506   2.798965   2.429496   1.401491
     7  H    3.386429   2.144676   1.080619   2.144621   3.386490
     8  H    3.395292   3.866655   3.380538   2.136615   1.080010
     9  H    2.148954   1.080444   2.149114   3.395417   3.867237
    10  H    1.080088   2.136590   3.380554   3.866689   3.395331
    11  C    5.175620   6.538619   7.117272   6.538658   5.175563
    12  C    4.879702   6.147115   6.512845   5.764047   4.388197
    13  C    3.704889   4.880830   5.150480   4.388632   3.028474
    14  C    2.515689   3.798120   4.292058   3.798153   2.515641
    15  C    3.028479   4.388547   5.150434   4.880838   3.704829
    16  C    4.388198   5.763953   6.512776   6.147082   4.879579
    17  H    5.790320   6.997433   7.249265   6.392945   5.044548
    18  H    3.983059   4.950433   4.972164   4.051237   2.790159
    19  H    2.790237   4.051227   4.972171   4.950480   3.983047
    20  H    5.044585   6.392885   7.249234   6.997450   5.790256
    21  H    3.867126   3.395381   2.149072   1.080378   2.148959
    22  C    9.402827  10.785856  11.409245  10.785929   9.402802
    23  C    8.633989  10.026710  10.785878  10.313873   8.965000
    24  C    7.241193   8.633915   9.402785   8.965035   7.631971
    25  C    6.636679   8.010662   8.610286   8.010720   6.636642
    26  C    7.632061   8.965042   9.402849   8.634034   7.241205
    27  C    8.965056  10.313841  10.785906  10.026796   8.633968
    28  H   10.475445  11.860291  12.489865  11.860364  10.475420
    29  H    9.222274  10.608460  11.460698  11.086120   9.766607
    30  H    6.781588   8.162731   9.058216   8.775943   7.506732
    31  H    7.506750   8.775886   9.058205   8.162769   6.781513
    32  H    9.766667  11.086100  11.460739  10.608561   9.222262
                    6          7          8          9         10
     6  C    0.000000
     7  H    3.879584   0.000000
     8  H    2.157206   4.270331   0.000000
     9  H    3.407233   2.472305   4.947090   0.000000
    10  H    2.157307   4.270363   4.297864   2.458917   0.000000
    11  C    4.318307   8.197891   4.993668   7.288931   4.993668
    12  C    3.797245   7.577524   4.049493   7.010612   4.947266
    13  C    2.515053   6.206389   2.788884   5.803312   3.981718
    14  C    1.493094   5.372678   2.729179   4.663314   2.729196
    15  C    2.515053   6.206347   3.981694   5.058994   2.788814
    16  C    3.797195   7.577462   4.947177   6.408021   4.049436
    17  H    4.650225   8.287606   4.547226   7.890129   5.916425
    18  H    2.729394   5.965175   2.361955   5.929576   4.461530
    19  H    2.729469   5.965190   4.461512   4.562690   2.361957
    20  H    4.650237   8.287581   5.916394   6.921807   4.547182
    21  H    3.407133   2.472248   2.458886   4.287597   4.947057
    22  C    8.610281  12.489865   9.058242  11.460770   9.058170
    23  C    8.010680  11.860315   8.775909  10.608561   8.162719
    24  C    6.636638  10.475404   7.506732   9.222296   6.781495
    25  C    5.811321   9.690906   6.373856   8.726946   6.373811
    26  C    6.636679  10.475465   6.781594   9.766743   7.506750
    27  C    8.010688  11.860340   8.162789  11.086183   8.775889
    28  H    9.690900  13.570484  10.111263  12.523946  10.111190
    29  H    8.726872  12.523877   9.655522  11.107653   8.648765
    30  H    6.373859  10.111239   7.535775   8.648875   6.189974
    31  H    6.373811  10.111222   6.189986   9.655596   7.535743
    32  H    8.726880  12.523915   8.648848  11.906483   9.655510
                   11         12         13         14         15
    11  C    0.000000
    12  C    1.399211   0.000000
    13  C    2.427393   1.392678   0.000000
    14  C    2.825214   2.427387   1.399079   0.000000
    15  C    2.427454   2.778154   2.403728   1.399086   0.000000
    16  C    1.399198   2.403867   2.778028   2.427316   1.392673
    17  H    2.155058   1.079781   2.136146   3.396360   3.857685
    18  H    3.396415   2.136104   1.079869   2.155028   3.388861
    19  H    3.396438   3.857748   3.388870   2.155068   1.079846
    20  H    2.155102   3.388997   3.857646   3.396359   2.136161
    21  H    7.288896   6.408039   5.059014   4.663268   5.803245
    22  C    4.291974   5.150514   6.512827   7.117187   6.512842
    23  C    3.798054   4.880898   6.147082   6.538546   5.764038
    24  C    2.515594   3.704970   4.879633   5.175490   4.388198
    25  C    1.493014   2.515117   3.797214   4.318228   3.797264
    26  C    2.515607   3.028506   4.388231   5.175537   4.879700
    27  C    3.798046   4.388610   5.764023   6.538559   6.147130
    28  H    5.372593   6.206420   7.577511   8.197806   7.577527
    29  H    4.663159   5.803306   7.010483   7.288760   6.408001
    30  H    2.729177   3.981852   4.947228   4.993615   4.049521
    31  H    2.729127   2.788806   4.049473   4.993585   4.947242
    32  H    4.663143   5.058934   6.407995   7.288776   7.010532
                   16         17         18         19         20
    16  C    0.000000
    17  H    3.388922   0.000000
    18  H    3.857646   2.439192   0.000000
    19  H    2.136092   4.937389   4.292782   0.000000
    20  H    1.079869   4.292828   4.937374   2.439153   0.000000
    21  H    7.010500   6.921806   4.562639   5.929541   7.890068
    22  C    5.150505   4.972218   7.249291   7.249235   4.972174
    23  C    4.388632   4.950498   6.997450   6.392914   4.051237
    24  C    3.028474   3.983156   5.790320   5.044514   2.790121
    25  C    2.515130   2.729448   4.650242   4.650246   2.729484
    26  C    3.704962   2.790183   5.044604   5.790321   3.983139
    27  C    4.880897   4.051235   6.392953   6.997436   4.950493
    28  H    6.206417   5.965229   8.287635   8.287580   5.965190
    29  H    5.058966   5.929578   7.890059   6.921731   4.562575
    30  H    2.788879   4.461637   5.916455   4.547214   2.361904
    31  H    3.981787   2.361859   4.547205   5.916412   4.461603
    32  H    5.803293   4.562573   6.921778   7.890044   5.929563
                   21         22         23         24         25
    21  H    0.000000
    22  C   11.460793   0.000000
    23  C   11.086153   1.391988   0.000000
    24  C    9.766672   2.407553   1.392798   0.000000
    25  C    8.726944   2.798959   2.429473   1.401523   0.000000
    26  C    9.222358   2.407571   2.786760   2.410976   1.401572
    27  C   10.608594   1.392078   2.416557   2.786784   2.429496
    28  H   12.523971   1.080619   2.144603   3.386468   3.879579
    29  H   11.906440   2.149022   1.080385   2.148899   3.407105
    30  H    9.655582   3.380491   2.136588   1.080010   2.157247
    31  H    8.648856   3.380629   3.866696   3.395371   2.157307
    32  H   11.107705   2.149125   3.395337   3.867161   3.407130
                   26         27         28         29         30
    26  C    0.000000
    27  C    1.392765   0.000000
    28  H    3.386468   2.144658   0.000000
    29  H    3.867140   3.395339   2.472243   0.000000
    30  H    3.395336   3.866640   4.270296   2.458807   0.000000
    31  H    1.080088   2.136666   4.270421   4.947072   4.297906
    32  H    2.148868   1.080382   2.472329   4.287550   4.947012
                   31         32
    31  H    0.000000
    32  H    2.458878   0.000000
 Stoichiometry    C18H14
 Framework group  C1[X(C18H14)]
 Deg. of freedom    90
 Full point group                 C1      NOp   1
 Largest Abelian subgroup         C1      NOp   1
 Largest concise Abelian subgroup C1      NOp   1
                         Standard orientation:                         
 ---------------------------------------------------------------------
 Center     Atomic      Atomic             Coordinates (Angstroms)
 Number     Number       Type             X           Y           Z
 ---------------------------------------------------------------------
      1          6           0       -3.620621    1.180561   -0.243748
      2          6           0       -5.013343    1.183216   -0.245087
      3          6           0       -5.704622    0.000031    0.000001
      4          6           0       -5.013406   -1.183172    0.245041
      5          6           0       -3.620578   -1.180567    0.243772
      6          6           0       -2.905658   -0.000038    0.000008
      7          1           0       -6.785242    0.000024    0.000003
      8          1           0       -3.095014   -2.101597    0.448485
      9          1           0       -5.553861    2.098544   -0.438410
     10          1           0       -3.094966    2.101635   -0.448439
     11          6           0        1.412650   -0.000036    0.000004
     12          6           0        0.696339   -1.075410   -0.536897
     13          6           0       -0.696339   -1.075289   -0.536870
     14          6           0       -1.412564   -0.000016    0.000002
     15          6           0       -0.696373    1.075288    0.536877
     16          6           0        0.696300    1.075302    0.536890
     17          1           0        1.219581   -1.912306   -0.974788
     18          1           0       -1.219611   -1.912241   -0.974835
     19          1           0       -1.219582    1.912220    0.974901
     20          1           0        1.219572    1.912254    0.974855
     21          1           0       -5.553877   -2.098449    0.438368
     22          6           0        5.704623    0.000067   -0.000015
     23          6           0        5.013367    1.183185   -0.245021
     24          6           0        3.620572    1.180616   -0.243619
     25          6           0        2.905664    0.000001   -0.000061
     26          6           0        3.620628   -1.180598    0.243694
     27          6           0        5.013389   -1.183168    0.245000
     28          1           0        6.785242    0.000074   -0.000017
     29          1           0        5.553792    2.098513   -0.438274
     30          1           0        3.095008    2.101647   -0.448332
     31          1           0        3.094972   -2.101672    0.448386
     32          1           0        5.553828   -2.098483    0.438264
 ---------------------------------------------------------------------
 Rotational constants (GHZ):           1.9079128           0.1590637           0.1489859
 Standard basis: def2TZVP (5D, 7F)
 There are   732 symmetry adapted cartesian basis functions of A   symmetry.
 There are   642 symmetry adapted basis functions of A   symmetry.
   642 basis functions,  1030 primitive gaussians,   732 cartesian basis functions
    61 alpha electrons       61 beta electrons
       nuclear repulsion energy      1092.7488096146 Hartrees.
 NAtoms=   32 NActive=   32 NUniq=   32 SFac= 1.00D+00 NAtFMM=   60 NAOKFM=F Big=F
 Integral buffers will be    131072 words long.
 Raffenetti 2 integral format.
 Two-electron integral symmetry is turned on.
 One-electron integrals computed using PRISM.
   1 Symmetry operations used in ECPInt.
 ECPInt:  NShTT=   32385 NPrTT=   99228 LenC2=   27293 LenP2D=   60623.
 LDataN:  DoStor=T MaxTD1= 6 Len=  172
 NBasis=   642 RedAO= T EigKep=  6.74D-06  NBF=   642
 NBsUse=   642 1.00D-06 EigRej= -1.00D+00 NBFU=   642
 ExpMin= 9.52D-02 ExpMax= 1.36D+04 ExpMxC= 4.63D+02 IAcc=3 IRadAn=         5 AccDes= 0.00D+00
 Harris functional with IExCor= 1009 and IRadAn=       5 diagonalized for initial guess.
 HarFok:  IExCor= 1009 AccDes= 0.00D+00 IRadAn=         5 IDoV= 1 UseB2=F ITyADJ=14
 ICtDFT=  3500011 ScaDFX=  1.000000  1.000000  1.000000  1.000000
 FoFCou: FMM=F IPFlag=           0 FMFlag=      100000 FMFlg1=           0
         NFxFlg=           0 DoJE=T BraDBF=F KetDBF=T FulRan=T
         wScrn=  0.000000 ICntrl=       500 IOpCl=  0 I1Cent=   200000004 NGrid=           0
         NMat0=    1 NMatS0=      1 NMatT0=    0 NMatD0=    1 NMtDS0=    0 NMtDT0=    0
 Petite list used in FoFCou.
 Requested convergence on RMS density matrix=1.00D-08 within 128 cycles.
 Requested convergence on MAX density matrix=1.00D-06.
 Requested convergence on             energy=1.00D-06.
 No special actions if energy rises.
 Integral accuracy reduced to 1.0D-05 until final iterations.
 Problem detected with inexpensive integrals.
 Switching to full accuracy and repeating last cycle.
 SCF Done:  E(RM062X) =  -694.310282211     A.U. after   13 cycles
            NFock= 13  Conv=0.42D-08     -V/T= 2.0054

 **********************************************************************

            Population analysis using the SCF Density.

 **********************************************************************

 Orbital symmetries:
       Occupied  (A) (A) (A) (A) (A) (A) (A) (A) (A) (A) (A) (A)
                 (A) (A) (A) (A) (A) (A) (A) (A) (A) (A) (A) (A)
                 (A) (A) (A) (A) (A) (A) (A) (A) (A) (A) (A) (A)
                 (A) (A) (A) (A) (A) (A) (A) (A) (A) (A) (A) (A)
                 (A) (A) (A) (A) (A) (A) (A) (A) (A) (A) (A) (A)
                 (A)
       Virtual   (A) (A) (A) (A) (A) (A) (A) (A) (A) (A) (A) (A)
                 (A) (A) (A) (A) (A) (A) (A) (A) (A) (A) (A) (A)
                 (A) (A) (A) (A) (A) (A) (A) (A) (A) (A) (A) (A)
                 (A) (A) (A) (A) (A) (A) (A) (A) (A) (A) (A) (A)
                 (A) (A) (A) (A) (A) (A) (A) (A) (A) (A) (A) (A)
                 (A) (A) (A) (A) (A) (A) (A) (A) (A) (A) (A) (A)
                 (A) (A) (A) (A) (A) (A) (A) (A) (A) (A) (A) (A)
                 (A) (A) (A) (A) (A) (A) (A) (A) (A) (A) (A) (A)
                 (A) (A) (A) (A) (A) (A) (A) (A) (A) (A) (A) (A)
                 (A) (A) (A) (A) (A) (A) (A) (A) (A) (A) (A) (A)
                 (A) (A) (A) (A) (A) (A) (A) (A) (A) (A) (A) (A)
                 (A) (A) (A) (A) (A) (A) (A) (A) (A) (A) (A) (A)
                 (A) (A) (A) (A) (A) (A) (A) (A) (A) (A) (A) (A)
                 (A) (A) (A) (A) (A) (A) (A) (A) (A) (A) (A) (A)
                 (A) (A) (A) (A) (A) (A) (A) (A) (A) (A) (A) (A)
                 (A) (A) (A) (A) (A) (A) (A) (A) (A) (A) (A) (A)
                 (A) (A) (A) (A) (A) (A) (A) (A) (A) (A) (A) (A)
                 (A) (A) (A) (A) (A) (A) (A) (A) (A) (A) (A) (A)
                 (A) (A) (A) (A) (A) (A) (A) (A) (A) (A) (A) (A)
                 (A) (A) (A) (A) (A) (A) (A) (A) (A) (A) (A) (A)
                 (A) (A) (A) (A) (A) (A) (A) (A) (A) (A) (A) (A)
                 (A) (A) (A) (A) (A) (A) (A) (A) (A) (A) (A) (A)
                 (A) (A) (A) (A) (A) (A) (A) (A) (A) (A) (A) (A)
                 (A) (A) (A) (A) (A) (A) (A) (A) (A) (A) (A) (A)
                 (A) (A) (A) (A) (A) (A) (A) (A) (A) (A) (A) (A)
                 (A) (A) (A) (A) (A) (A) (A) (A) (A) (A) (A) (A)
                 (A) (A) (A) (A) (A) (A) (A) (A) (A) (A) (A) (A)
                 (A) (A) (A) (A) (A) (A) (A) (A) (A) (A) (A) (A)
                 (A) (A) (A) (A) (A) (A) (A) (A) (A) (A) (A) (A)
                 (A) (A) (A) (A) (A) (A) (A) (A) (A) (A) (A) (A)
                 (A) (A) (A) (A) (A) (A) (A) (A) (A) (A) (A) (A)
                 (A) (A) (A) (A) (A) (A) (A) (A) (A) (A) (A) (A)
                 (A) (A) (A) (A) (A) (A) (A) (A) (A) (A) (A) (A)
                 (A) (A) (A) (A) (A) (A) (A) (A) (A) (A) (A) (A)
                 (A) (A) (A) (A) (A) (A) (A) (A) (A) (A) (A) (A)
                 (A) (A) (A) (A) (A) (A) (A) (A) (A) (A) (A) (A)
                 (A) (A) (A) (A) (A) (A) (A) (A) (A) (A) (A) (A)
                 (A) (A) (A) (A) (A) (A) (A) (A) (A) (A) (A) (A)
                 (A) (A) (A) (A) (A) (A) (A) (A) (A) (A) (A) (A)
                 (A) (A) (A) (A) (A) (A) (A) (A) (A) (A) (A) (A)
                 (A) (A) (A) (A) (A) (A) (A) (A) (A) (A) (A) (A)
                 (A) (A) (A) (A) (A) (A) (A) (A) (A) (A) (A) (A)
                 (A) (A) (A) (A) (A) (A) (A) (A) (A) (A) (A) (A)
                 (A) (A) (A) (A) (A) (A) (A) (A) (A) (A) (A) (A)
                 (A) (A) (A) (A) (A) (A) (A) (A) (A) (A) (A) (A)
                 (A) (A) (A) (A) (A) (A) (A) (A) (A) (A) (A) (A)
                 (A) (A) (A) (A) (A) (A) (A) (A) (A) (A) (A) (A)
                 (A) (A) (A) (A) (A) (A) (A) (A) (A) (A) (A) (A)
                 (A) (A) (A) (A) (A)
 The electronic state is 1-A.
 Alpha  occ. eigenvalues --  -10.55620 -10.55620 -10.55545 -10.55542 -10.54534
 Alpha  occ. eigenvalues --  -10.54528 -10.54453 -10.54451 -10.54450 -10.54449
 Alpha  occ. eigenvalues --  -10.54447 -10.54447 -10.54376 -10.54376 -10.54366
 Alpha  occ. eigenvalues --  -10.54366 -10.54216 -10.54216  -0.98176  -0.96730
 Alpha  occ. eigenvalues --   -0.95010  -0.88961  -0.85195  -0.84903  -0.84595
 Alpha  occ. eigenvalues --   -0.84064  -0.80477  -0.71974  -0.71207  -0.69145
 Alpha  occ. eigenvalues --   -0.67947  -0.67137  -0.65428  -0.61487  -0.59649
 Alpha  occ. eigenvalues --   -0.55880  -0.54941  -0.54226  -0.51948  -0.51768
 Alpha  occ. eigenvalues --   -0.51247  -0.50309  -0.49676  -0.49084  -0.48557
 Alpha  occ. eigenvalues --   -0.48508  -0.45164  -0.44663  -0.44037  -0.42822
 Alpha  occ. eigenvalues --   -0.41924  -0.40639  -0.40463  -0.39466  -0.39064
 Alpha  occ. eigenvalues --   -0.34646  -0.31210  -0.31101  -0.31074  -0.30782
 Alpha  occ. eigenvalues --   -0.26890
 Alpha virt. eigenvalues --   -0.01787   0.01303   0.01749   0.02070   0.02344
 Alpha virt. eigenvalues --    0.06302   0.08198   0.08315   0.09252   0.09485
 Alpha virt. eigenvalues --    0.10573   0.11324   0.12126   0.12729   0.13442
 Alpha virt. eigenvalues --    0.14083   0.14420   0.14927   0.15503   0.16202
 Alpha virt. eigenvalues --    0.16282   0.17563   0.18012   0.18939   0.19683
 Alpha virt. eigenvalues --    0.20310   0.22079   0.22430   0.22598   0.22729
 Alpha virt. eigenvalues --    0.23592   0.24071   0.24596   0.25185   0.25348
 Alpha virt. eigenvalues --    0.25424   0.26302   0.26321   0.27005   0.27103
 Alpha virt. eigenvalues --    0.27805   0.27819   0.27879   0.30069   0.30399
 Alpha virt. eigenvalues --    0.30907   0.31470   0.31742   0.31952   0.32024
 Alpha virt. eigenvalues --    0.32322   0.32822   0.35239   0.35296   0.36016
 Alpha virt. eigenvalues --    0.36875   0.37135   0.37173   0.37513   0.37630
 Alpha virt. eigenvalues --    0.37861   0.37916   0.39131   0.40045   0.40336
 Alpha virt. eigenvalues --    0.41073   0.41141   0.41993   0.42179   0.42439
 Alpha virt. eigenvalues --    0.42468   0.42521   0.44212   0.44381   0.44654
 Alpha virt. eigenvalues --    0.45001   0.45895   0.45938   0.46446   0.46857
 Alpha virt. eigenvalues --    0.47266   0.47721   0.48258   0.48674   0.49370
 Alpha virt. eigenvalues --    0.50107   0.50983   0.51966   0.52238   0.52893
 Alpha virt. eigenvalues --    0.52965   0.53859   0.53924   0.53944   0.55633
 Alpha virt. eigenvalues --    0.55719   0.56533   0.56564   0.58628   0.59519
 Alpha virt. eigenvalues --    0.59797   0.60291   0.62651   0.63130   0.63199
 Alpha virt. eigenvalues --    0.65039   0.65473   0.66557   0.67361   0.67911
 Alpha virt. eigenvalues --    0.68688   0.70155   0.70274   0.72320   0.72935
 Alpha virt. eigenvalues --    0.73060   0.73581   0.73762   0.73943   0.74308
 Alpha virt. eigenvalues --    0.75644   0.75976   0.76229   0.77432   0.77468
 Alpha virt. eigenvalues --    0.77511   0.78218   0.78456   0.78767   0.79722
 Alpha virt. eigenvalues --    0.81117   0.81455   0.83750   0.83813   0.84036
 Alpha virt. eigenvalues --    0.84221   0.84617   0.86402   0.88471   0.89399
 Alpha virt. eigenvalues --    0.90904   0.91572   0.91605   0.91650   0.92841
 Alpha virt. eigenvalues --    0.92862   0.93609   0.93767   0.94023   0.94384
 Alpha virt. eigenvalues --    0.95846   0.96991   0.99359   0.99857   1.00368
 Alpha virt. eigenvalues --    1.01113   1.02313   1.03716   1.04275   1.04291
 Alpha virt. eigenvalues --    1.05015   1.06495   1.06535   1.08292   1.09372
 Alpha virt. eigenvalues --    1.10913   1.11456   1.11672   1.13872   1.15107
 Alpha virt. eigenvalues --    1.16195   1.17792   1.19514   1.20142   1.20908
 Alpha virt. eigenvalues --    1.21660   1.21717   1.22165   1.23752   1.24090
 Alpha virt. eigenvalues --    1.24978   1.25530   1.25565   1.27269   1.27613
 Alpha virt. eigenvalues --    1.27901   1.29650   1.30176   1.30556   1.32344
 Alpha virt. eigenvalues --    1.32375   1.33364   1.34613   1.34616   1.34958
 Alpha virt. eigenvalues --    1.35181   1.37371   1.38141   1.39127   1.40234
 Alpha virt. eigenvalues --    1.40414   1.42677   1.43513   1.45416   1.46280
 Alpha virt. eigenvalues --    1.46715   1.47585   1.48073   1.49531   1.49668
 Alpha virt. eigenvalues --    1.50698   1.51228   1.51665   1.54200   1.54847
 Alpha virt. eigenvalues --    1.55676   1.56021   1.56628   1.58510   1.59552
 Alpha virt. eigenvalues --    1.59710   1.59833   1.60222   1.60516   1.60786
 Alpha virt. eigenvalues --    1.61459   1.62315   1.63545   1.63834   1.66576
 Alpha virt. eigenvalues --    1.67434   1.68547   1.70110   1.70339   1.71790
 Alpha virt. eigenvalues --    1.72141   1.72312   1.72664   1.73614   1.75243
 Alpha virt. eigenvalues --    1.75790   1.75979   1.76566   1.77424   1.77487
 Alpha virt. eigenvalues --    1.79134   1.79380   1.79980   1.80356   1.82960
 Alpha virt. eigenvalues --    1.86219   1.89187   1.89643   1.90500   1.90659
 Alpha virt. eigenvalues --    1.90988   1.91858   1.93065   1.93174   1.94854
 Alpha virt. eigenvalues --    1.95365   1.96461   2.00023   2.03057   2.05090
 Alpha virt. eigenvalues --    2.05409   2.05436   2.06358   2.06536   2.06927
 Alpha virt. eigenvalues --    2.06999   2.09162   2.09409   2.10897   2.11766
 Alpha virt. eigenvalues --    2.13266   2.14469   2.15662   2.19228   2.19508
 Alpha virt. eigenvalues --    2.20488   2.20909   2.22297   2.22659   2.23538
 Alpha virt. eigenvalues --    2.25692   2.25745   2.27358   2.27382   2.27468
 Alpha virt. eigenvalues --    2.27762   2.28284   2.32845   2.34775   2.35419
 Alpha virt. eigenvalues --    2.37225   2.37762   2.37869   2.41659   2.44179
 Alpha virt. eigenvalues --    2.45929   2.46998   2.47033   2.47850   2.50387
 Alpha virt. eigenvalues --    2.51071   2.52536   2.53059   2.54319   2.55588
 Alpha virt. eigenvalues --    2.56949   2.57340   2.57688   2.60135   2.60743
 Alpha virt. eigenvalues --    2.61267   2.62553   2.62934   2.64347   2.65509
 Alpha virt. eigenvalues --    2.65660   2.66602   2.66776   2.66833   2.67208
 Alpha virt. eigenvalues --    2.68637   2.68807   2.68887   2.69200   2.69820
 Alpha virt. eigenvalues --    2.70106   2.70689   2.71703   2.71770   2.72903
 Alpha virt. eigenvalues --    2.73830   2.74453   2.75224   2.75706   2.75716
 Alpha virt. eigenvalues --    2.76591   2.77492   2.77614   2.78615   2.78733
 Alpha virt. eigenvalues --    2.79173   2.80377   2.82419   2.82722   2.83743
 Alpha virt. eigenvalues --    2.83899   2.84217   2.84338   2.84556   2.84557
 Alpha virt. eigenvalues --    2.86330   2.86554   2.87115   2.87609   2.88459
 Alpha virt. eigenvalues --    2.88796   2.89322   2.89695   2.90807   2.91431
 Alpha virt. eigenvalues --    2.93720   2.95738   2.96453   2.97601   3.00673
 Alpha virt. eigenvalues --    3.01402   3.01777   3.02662   3.02848   3.03820
 Alpha virt. eigenvalues --    3.04128   3.06242   3.07380   3.07978   3.08047
 Alpha virt. eigenvalues --    3.08725   3.10246   3.10351   3.11482   3.13710
 Alpha virt. eigenvalues --    3.13804   3.14689   3.14892   3.14922   3.15429
 Alpha virt. eigenvalues --    3.15574   3.16070   3.17529   3.18018   3.18261
 Alpha virt. eigenvalues --    3.19113   3.19807   3.19902   3.20111   3.20361
 Alpha virt. eigenvalues --    3.22965   3.23856   3.24462   3.24513   3.25341
 Alpha virt. eigenvalues --    3.26612   3.26646   3.26850   3.27473   3.29565
 Alpha virt. eigenvalues --    3.29756   3.31092   3.31732   3.32332   3.33021
 Alpha virt. eigenvalues --    3.35070   3.35739   3.36622   3.36889   3.36904
 Alpha virt. eigenvalues --    3.37347   3.37562   3.38969   3.39733   3.40144
 Alpha virt. eigenvalues --    3.41016   3.41864   3.42659   3.43802   3.43877
 Alpha virt. eigenvalues --    3.44078   3.44090   3.44222   3.45368   3.46543
 Alpha virt. eigenvalues --    3.47694   3.48774   3.49020   3.49210   3.49387
 Alpha virt. eigenvalues --    3.50304   3.52150   3.52670   3.53606   3.55109
 Alpha virt. eigenvalues --    3.55286   3.55398   3.55474   3.55778   3.56529
 Alpha virt. eigenvalues --    3.59964   3.60061   3.60097   3.61194   3.63047
 Alpha virt. eigenvalues --    3.63591   3.64878   3.66274   3.68130   3.70206
 Alpha virt. eigenvalues --    3.73828   3.75447   3.75617   3.77146   3.77605
 Alpha virt. eigenvalues --    3.79039   3.80909   3.84195   3.85209   3.86722
 Alpha virt. eigenvalues --    3.89987   3.92740   3.92842   3.93435   3.96691
 Alpha virt. eigenvalues --    3.97689   3.98438   3.99540   4.00970   4.01932
 Alpha virt. eigenvalues --    4.02216   4.03839   4.04800   4.05824   4.08358
 Alpha virt. eigenvalues --    4.09336   4.09608   4.09664   4.11495   4.13992
 Alpha virt. eigenvalues --    4.14760   4.16501   4.16720   4.16791   4.16989
 Alpha virt. eigenvalues --    4.17312   4.18241   4.18561   4.18944   4.19773
 Alpha virt. eigenvalues --    4.20156   4.20223   4.20975   4.21397   4.22146
 Alpha virt. eigenvalues --    4.23837   4.25423   4.26658   4.28151   4.29855
 Alpha virt. eigenvalues --    4.29917   4.32333   4.34100   4.34289   4.37519
 Alpha virt. eigenvalues --    4.38512   4.40107   4.43247   4.50705   4.55504
 Alpha virt. eigenvalues --    4.55509   4.57150   4.57959   4.61323   4.61412
 Alpha virt. eigenvalues --    4.61920   4.62033   4.63782   4.66574   4.66913
 Alpha virt. eigenvalues --    4.67684   4.71205   4.72472   4.73033   4.83190
 Alpha virt. eigenvalues --    4.84704   4.85080   4.88240   4.88872   4.89296
 Alpha virt. eigenvalues --    4.90691   4.94234   4.94729   4.95995   5.07489
 Alpha virt. eigenvalues --    5.10410   5.16181   5.18499   5.19490   5.23764
 Alpha virt. eigenvalues --    5.24307   5.25936   5.30547   5.32000   5.37473
 Alpha virt. eigenvalues --    5.39582   5.40270   5.44026   5.45094   5.57066
 Alpha virt. eigenvalues --    5.63072   5.63392   5.79368  21.98301  22.31649
 Alpha virt. eigenvalues --   22.45155  22.67918  22.68110  22.71176  22.71388
 Alpha virt. eigenvalues --   22.80645  22.81248  22.83329  22.86257  22.89540
 Alpha virt. eigenvalues --   22.89953  22.95893  23.02111  23.27319  23.34550
 Alpha virt. eigenvalues --   23.53197
          Condensed to atoms (all electrons):
               1          2          3          4          5          6
     1  C    5.013789   0.509368  -0.045493  -0.045406  -0.030790   0.504959
     2  C    0.509368   4.897690   0.525412  -0.039579  -0.045414  -0.059165
     3  C   -0.045493   0.525412   4.875872   0.525467  -0.045462  -0.038871
     4  C   -0.045406  -0.039579   0.525467   4.897738   0.509236  -0.059157
     5  C   -0.030790  -0.045414  -0.045462   0.509236   5.013863   0.505007
     6  C    0.504959  -0.059165  -0.038871  -0.059157   0.505007   4.964838
     7  H    0.004231  -0.034825   0.410293  -0.034829   0.004233   0.000957
     8  H    0.005256  -0.000086   0.002393  -0.020770   0.394314  -0.036879
     9  H   -0.030931   0.407989  -0.031258   0.003567   0.000016   0.004528
    10  H    0.394296  -0.020764   0.002397  -0.000086   0.005255  -0.036885
    11  C    0.000418   0.000001  -0.000003   0.000001   0.000418  -0.002846
    12  C   -0.001174   0.000074  -0.000018  -0.000078   0.001767   0.008467
    13  C    0.009052  -0.000700   0.000000   0.001855  -0.000747  -0.080219
    14  C   -0.080275   0.005739  -0.002978   0.005740  -0.080281   0.286263
    15  C   -0.000754   0.001856  -0.000000  -0.000699   0.009049  -0.080220
    16  C    0.001769  -0.000078  -0.000018   0.000074  -0.001173   0.008469
    17  H    0.000025  -0.000000   0.000000  -0.000001   0.000027  -0.000084
    18  H    0.000326  -0.000117  -0.000072   0.000751   0.002739  -0.000038
    19  H    0.002737   0.000751  -0.000072  -0.000117   0.000326  -0.000036
    20  H    0.000027  -0.000001   0.000000  -0.000000   0.000025  -0.000084
    21  H    0.000017   0.003567  -0.031255   0.408010  -0.030947   0.004527
    22  C   -0.000000  -0.000000   0.000000  -0.000000  -0.000000  -0.000000
    23  C    0.000000   0.000000  -0.000000   0.000000   0.000000  -0.000001
    24  C    0.000005   0.000000  -0.000000   0.000000   0.000001   0.000019
    25  C    0.000019  -0.000001  -0.000000  -0.000001   0.000019  -0.001060
    26  C    0.000001   0.000000  -0.000000   0.000000   0.000005   0.000019
    27  C    0.000000   0.000000  -0.000000   0.000000   0.000000  -0.000001
    28  H   -0.000000  -0.000000   0.000000  -0.000000  -0.000000  -0.000000
    29  H    0.000000   0.000000  -0.000000   0.000000   0.000000   0.000000
    30  H    0.000002   0.000000  -0.000000   0.000000   0.000000   0.000004
    31  H    0.000000   0.000000  -0.000000   0.000000   0.000002   0.000004
    32  H    0.000000   0.000000  -0.000000   0.000000   0.000000   0.000000
               7          8          9         10         11         12
     1  C    0.004231   0.005256  -0.030931   0.394296   0.000418  -0.001174
     2  C   -0.034825  -0.000086   0.407989  -0.020764   0.000001   0.000074
     3  C    0.410293   0.002393  -0.031258   0.002397  -0.000003  -0.000018
     4  C   -0.034829  -0.020770   0.003567  -0.000086   0.000001  -0.000078
     5  C    0.004233   0.394314   0.000016   0.005255   0.000418   0.001767
     6  C    0.000957  -0.036879   0.004528  -0.036885  -0.002846   0.008467
     7  H    0.516603  -0.000291  -0.004012  -0.000291  -0.000000  -0.000000
     8  H   -0.000291   0.490015   0.000066  -0.000230   0.000095   0.000713
     9  H   -0.004012   0.000066   0.509396  -0.003384   0.000001  -0.000001
    10  H   -0.000291  -0.000230  -0.003384   0.490034   0.000094  -0.000212
    11  C   -0.000000   0.000095   0.000001   0.000094   4.917646   0.515319
    12  C   -0.000000   0.000713  -0.000001  -0.000212   0.515319   5.031953
    13  C   -0.000007   0.003013   0.000034   0.000566  -0.057474   0.479286
    14  C    0.000119   0.003464  -0.000081   0.003471  -0.015798  -0.057454
    15  C   -0.000007   0.000567   0.000038   0.003012  -0.057462  -0.049743
    16  C   -0.000000  -0.000212  -0.000001   0.000714   0.515356  -0.029111
    17  H   -0.000000   0.000033   0.000000   0.000001  -0.030448   0.386932
    18  H   -0.000000  -0.001982   0.000002   0.000050   0.001360  -0.012981
    19  H   -0.000000   0.000050   0.000054  -0.001984   0.001357   0.000125
    20  H   -0.000000   0.000001   0.000000   0.000033  -0.030442   0.005226
    21  H   -0.004013  -0.003379  -0.000278   0.000066   0.000001  -0.000001
    22  C    0.000000  -0.000000  -0.000000  -0.000000  -0.002966  -0.000002
    23  C   -0.000000   0.000000   0.000000   0.000000   0.005712  -0.000697
    24  C   -0.000000   0.000000   0.000000   0.000002  -0.080211   0.009049
    25  C   -0.000000   0.000004   0.000000   0.000004   0.286157  -0.080213
    26  C   -0.000000   0.000002   0.000000   0.000000  -0.080223  -0.000769
    27  C   -0.000000   0.000000   0.000000   0.000000   0.005720   0.001860
    28  H   -0.000000  -0.000000   0.000000  -0.000000   0.000119  -0.000007
    29  H    0.000000   0.000000   0.000000   0.000000  -0.000081   0.000034
    30  H   -0.000000   0.000000   0.000000   0.000001   0.003473   0.000564
    31  H   -0.000000   0.000001   0.000000   0.000000   0.003478   0.003009
    32  H    0.000000   0.000000   0.000000   0.000000  -0.000081   0.000038
              13         14         15         16         17         18
     1  C    0.009052  -0.080275  -0.000754   0.001769   0.000025   0.000326
     2  C   -0.000700   0.005739   0.001856  -0.000078  -0.000000  -0.000117
     3  C    0.000000  -0.002978  -0.000000  -0.000018   0.000000  -0.000072
     4  C    0.001855   0.005740  -0.000699   0.000074  -0.000001   0.000751
     5  C   -0.000747  -0.080281   0.009049  -0.001173   0.000027   0.002739
     6  C   -0.080219   0.286263  -0.080220   0.008469  -0.000084  -0.000038
     7  H   -0.000007   0.000119  -0.000007  -0.000000  -0.000000  -0.000000
     8  H    0.003013   0.003464   0.000567  -0.000212   0.000033  -0.001982
     9  H    0.000034  -0.000081   0.000038  -0.000001   0.000000   0.000002
    10  H    0.000566   0.003471   0.003012   0.000714   0.000001   0.000050
    11  C   -0.057474  -0.015798  -0.057462   0.515356  -0.030448   0.001360
    12  C    0.479286  -0.057454  -0.049743  -0.029111   0.386932  -0.012981
    13  C    5.031916   0.515348  -0.029129  -0.049727  -0.012964   0.386911
    14  C    0.515348   4.917605   0.515317  -0.057473   0.001357  -0.030442
    15  C   -0.029129   0.515317   5.031960   0.479292   0.000125   0.005230
    16  C   -0.049727  -0.057473   0.479292   5.031937   0.005227   0.000124
    17  H   -0.012964   0.001357   0.000125   0.005227   0.485851  -0.002512
    18  H    0.386911  -0.030442   0.005230   0.000124  -0.002512   0.485882
    19  H    0.005226  -0.030426   0.386904  -0.012969   0.000063  -0.000237
    20  H    0.000126   0.001359  -0.012971   0.386911  -0.000237   0.000063
    21  H    0.000038  -0.000081   0.000034  -0.000001   0.000000   0.000054
    22  C   -0.000018  -0.000003  -0.000018  -0.000004  -0.000073   0.000000
    23  C    0.000074   0.000001  -0.000078   0.001865  -0.000116  -0.000000
    24  C   -0.001177   0.000419   0.001762  -0.000771   0.000322   0.000025
    25  C    0.008465  -0.002847   0.008479  -0.080221  -0.000027  -0.000084
    26  C    0.001766   0.000418  -0.001174   0.009039   0.002735   0.000027
    27  C   -0.000078   0.000001   0.000074  -0.000694   0.000753  -0.000001
    28  H   -0.000000  -0.000000  -0.000000  -0.000007  -0.000000  -0.000000
    29  H   -0.000001   0.000001  -0.000001   0.000038   0.000002   0.000000
    30  H   -0.000212   0.000095   0.000711   0.003014   0.000050   0.000001
    31  H    0.000713   0.000095  -0.000212   0.000566  -0.001985   0.000033
    32  H   -0.000001   0.000001  -0.000001   0.000034   0.000054   0.000000
              19         20         21         22         23         24
     1  C    0.002737   0.000027   0.000017  -0.000000   0.000000   0.000005
     2  C    0.000751  -0.000001   0.003567  -0.000000   0.000000   0.000000
     3  C   -0.000072   0.000000  -0.031255   0.000000  -0.000000  -0.000000
     4  C   -0.000117  -0.000000   0.408010  -0.000000   0.000000   0.000000
     5  C    0.000326   0.000025  -0.030947  -0.000000   0.000000   0.000001
     6  C   -0.000036  -0.000084   0.004527  -0.000000  -0.000001   0.000019
     7  H   -0.000000  -0.000000  -0.004013   0.000000  -0.000000  -0.000000
     8  H    0.000050   0.000001  -0.003379  -0.000000   0.000000   0.000000
     9  H    0.000054   0.000000  -0.000278  -0.000000   0.000000   0.000000
    10  H   -0.001984   0.000033   0.000066  -0.000000   0.000000   0.000002
    11  C    0.001357  -0.030442   0.000001  -0.002966   0.005712  -0.080211
    12  C    0.000125   0.005226  -0.000001  -0.000002  -0.000697   0.009049
    13  C    0.005226   0.000126   0.000038  -0.000018   0.000074  -0.001177
    14  C   -0.030426   0.001359  -0.000081  -0.000003   0.000001   0.000419
    15  C    0.386904  -0.012971   0.000034  -0.000018  -0.000078   0.001762
    16  C   -0.012969   0.386911  -0.000001  -0.000004   0.001865  -0.000771
    17  H    0.000063  -0.000237   0.000000  -0.000073  -0.000116   0.000322
    18  H   -0.000237   0.000063   0.000054   0.000000  -0.000000   0.000025
    19  H    0.485856  -0.002513   0.000002   0.000000  -0.000001   0.000027
    20  H   -0.002513   0.485881   0.000000  -0.000073   0.000754   0.002735
    21  H    0.000002   0.000000   0.509387  -0.000000   0.000000   0.000000
    22  C    0.000000  -0.000073  -0.000000   4.875902   0.525428  -0.045419
    23  C   -0.000001   0.000754   0.000000   0.525428   4.897724   0.509244
    24  C    0.000027   0.002735   0.000000  -0.045419   0.509244   5.013848
    25  C   -0.000084  -0.000030   0.000000  -0.038929  -0.059101   0.504946
    26  C    0.000025   0.000322   0.000000  -0.045395  -0.045483  -0.030699
    27  C   -0.000000  -0.000116   0.000000   0.525343  -0.039527  -0.045468
    28  H   -0.000000  -0.000000   0.000000   0.410304  -0.034833   0.004237
    29  H    0.000000   0.000054   0.000000  -0.031263   0.408012  -0.030953
    30  H    0.000033  -0.001986   0.000000   0.002394  -0.020753   0.394285
    31  H    0.000001   0.000050   0.000000   0.002392  -0.000085   0.005250
    32  H    0.000000   0.000002   0.000000  -0.031257   0.003569   0.000015
              25         26         27         28         29         30
     1  C    0.000019   0.000001   0.000000  -0.000000   0.000000   0.000002
     2  C   -0.000001   0.000000   0.000000  -0.000000   0.000000   0.000000
     3  C   -0.000000  -0.000000  -0.000000   0.000000  -0.000000  -0.000000
     4  C   -0.000001   0.000000   0.000000  -0.000000   0.000000   0.000000
     5  C    0.000019   0.000005   0.000000  -0.000000   0.000000   0.000000
     6  C   -0.001060   0.000019  -0.000001  -0.000000   0.000000   0.000004
     7  H   -0.000000  -0.000000  -0.000000  -0.000000   0.000000  -0.000000
     8  H    0.000004   0.000002   0.000000  -0.000000   0.000000   0.000000
     9  H    0.000000   0.000000   0.000000   0.000000   0.000000   0.000000
    10  H    0.000004   0.000000   0.000000  -0.000000   0.000000   0.000001
    11  C    0.286157  -0.080223   0.005720   0.000119  -0.000081   0.003473
    12  C   -0.080213  -0.000769   0.001860  -0.000007   0.000034   0.000564
    13  C    0.008465   0.001766  -0.000078  -0.000000  -0.000001  -0.000212
    14  C   -0.002847   0.000418   0.000001  -0.000000   0.000001   0.000095
    15  C    0.008479  -0.001174   0.000074  -0.000000  -0.000001   0.000711
    16  C   -0.080221   0.009039  -0.000694  -0.000007   0.000038   0.003014
    17  H   -0.000027   0.002735   0.000753  -0.000000   0.000002   0.000050
    18  H   -0.000084   0.000027  -0.000001  -0.000000   0.000000   0.000001
    19  H   -0.000084   0.000025  -0.000000  -0.000000   0.000000   0.000033
    20  H   -0.000030   0.000322  -0.000116  -0.000000   0.000054  -0.001986
    21  H    0.000000   0.000000   0.000000   0.000000   0.000000   0.000000
    22  C   -0.038929  -0.045395   0.525343   0.410304  -0.031263   0.002394
    23  C   -0.059101  -0.045483  -0.039527  -0.034833   0.408012  -0.020753
    24  C    0.504946  -0.030699  -0.045468   0.004237  -0.030953   0.394285
    25  C    4.965000   0.504835  -0.059104   0.000954   0.004533  -0.036869
    26  C    0.504835   5.013944   0.509247   0.004236   0.000014   0.005257
    27  C   -0.059104   0.509247   4.897794  -0.034836   0.003572  -0.000087
    28  H    0.000954   0.004236  -0.034836   0.516602  -0.004016  -0.000291
    29  H    0.004533   0.000014   0.003572  -0.004016   0.509403  -0.003381
    30  H   -0.036869   0.005257  -0.000087  -0.000291  -0.003381   0.489999
    31  H   -0.036885   0.394292  -0.020751  -0.000291   0.000066  -0.000230
    32  H    0.004532  -0.030952   0.408010  -0.004012  -0.000278   0.000066
              31         32
     1  C    0.000000   0.000000
     2  C    0.000000   0.000000
     3  C   -0.000000  -0.000000
     4  C    0.000000   0.000000
     5  C    0.000002   0.000000
     6  C    0.000004   0.000000
     7  H   -0.000000   0.000000
     8  H    0.000001   0.000000
     9  H    0.000000   0.000000
    10  H    0.000000   0.000000
    11  C    0.003478  -0.000081
    12  C    0.003009   0.000038
    13  C    0.000713  -0.000001
    14  C    0.000095   0.000001
    15  C   -0.000212  -0.000001
    16  C    0.000566   0.000034
    17  H   -0.001985   0.000054
    18  H    0.000033   0.000000
    19  H    0.000001   0.000000
    20  H    0.000050   0.000002
    21  H    0.000000   0.000000
    22  C    0.002392  -0.031257
    23  C   -0.000085   0.003569
    24  C    0.005250   0.000015
    25  C   -0.036885   0.004532
    26  C    0.394292  -0.030952
    27  C   -0.020751   0.408010
    28  H   -0.000291  -0.004012
    29  H    0.000066  -0.000278
    30  H   -0.000230   0.000066
    31  H    0.490016  -0.003382
    32  H   -0.003382   0.509393
 Mulliken charges:
               1
     1  C   -0.211474
     2  C   -0.151715
     3  C   -0.146335
     4  C   -0.151714
     5  C   -0.211488
     6  C    0.107484
     7  H    0.141839
     8  H    0.163842
     9  H    0.144255
    10  H    0.163840
    11  C    0.101308
    12  C   -0.211960
    13  C   -0.211938
    14  C    0.101326
    15  C   -0.211940
    16  C   -0.211969
    17  H    0.164892
    18  H    0.164889
    19  H    0.164904
    20  H    0.164886
    21  H    0.144252
    22  C   -0.146344
    23  C   -0.151709
    24  C   -0.211491
    25  C    0.107508
    26  C   -0.211489
    27  C   -0.151712
    28  H    0.141840
    29  H    0.144245
    30  H    0.163861
    31  H    0.163854
    32  H    0.144251
 Sum of Mulliken charges =  -0.00000
 Mulliken charges with hydrogens summed into heavy atoms:
               1
     1  C   -0.047634
     2  C   -0.007460
     3  C   -0.004496
     4  C   -0.007461
     5  C   -0.047646
     6  C    0.107484
    11  C    0.101308
    12  C   -0.047068
    13  C   -0.047049
    14  C    0.101326
    15  C   -0.047036
    16  C   -0.047083
    22  C   -0.004504
    23  C   -0.007464
    24  C   -0.047630
    25  C    0.107508
    26  C   -0.047635
    27  C   -0.007462
 Electronic spatial extent (au):  <R**2>=           6881.0032
 Charge=              0.0000 electrons
 Dipole moment (field-independent basis, Debye):
    X=              0.0002    Y=             -0.0000    Z=              0.0001  Tot=              0.0003
 Quadrupole moment (field-independent basis, Debye-Ang):
   XX=            -91.6930   YY=            -93.5095   ZZ=           -112.8353
   XY=             -0.0001   XZ=             -0.0003   YZ=             -0.1489
 Traceless Quadrupole moment (field-independent basis, Debye-Ang):
   XX=              7.6529   YY=              5.8364   ZZ=            -13.4894
   XY=             -0.0001   XZ=             -0.0003   YZ=             -0.1489
 Octapole moment (field-independent basis, Debye-Ang**2):
  XXX=              0.0033  YYY=             -0.0005  ZZZ=              0.0002  XYY=              0.0015
  XXY=              0.0007  XXZ=              0.0001  XZZ=             -0.0001  YZZ=              0.0003
  YYZ=              0.0004  XYZ=              0.0017
 Hexadecapole moment (field-independent basis, Debye-Ang**3):
 XXXX=          -7796.6502 YYYY=           -758.8263 ZZZZ=           -214.4851 XXXY=             -0.0061
 XXXZ=             -0.0017 YYYX=              0.0028 YYYZ=             -4.7457 ZZZX=             -0.0020
 ZZZY=              4.2166 XXYY=          -1428.7833 XXZZ=          -1652.4110 YYZZ=           -173.0938
 XXYZ=            -67.8530 YYXZ=             -0.0015 ZZXY=              0.0009
 N-N= 1.092748809615D+03 E-N=-3.794946913286D+03  KE= 6.906113919013D+02
 ******************************Gaussian NBO Version 3.1******************************
             N A T U R A L   A T O M I C   O R B I T A L   A N D
          N A T U R A L   B O N D   O R B I T A L   A N A L Y S I S
 ******************************Gaussian NBO Version 3.1******************************
       /RESON  / : Allow strongly delocalized NBO set

 Analyzing the SCF density

 Job title: Structure697                                                    

 Storage needed:   1240238 in NPA,   1651637 in NBO (1048570624 available)
 GSVD:  LWork=      164364 too small for GESVD, short by      328086 words or      328086 for optimal perf.


 NATURAL POPULATIONS:  Natural atomic orbital occupancies 
                                                          
   NAO  Atom  No  lang   Type(AO)    Occupancy      Energy
 ----------------------------------------------------------
     1    C    1  S      Cor( 1S)     1.99916     -10.38236
     2    C    1  S      Val( 2S)     0.96953      -0.22834
     3    C    1  S      Ryd( 3S)     0.00097       1.36535
     4    C    1  S      Ryd( 4S)     0.00018       1.47460
     5    C    1  S      Ryd( 5S)     0.00001      21.37595
     6    C    1  px     Val( 2p)     1.07930      -0.06790
     7    C    1  px     Ryd( 3p)     0.00313       1.15976
     8    C    1  px     Ryd( 4p)     0.00018       2.42811
     9    C    1  py     Val( 2p)     1.12672      -0.06842
    10    C    1  py     Ryd( 3p)     0.00400       1.08026
    11    C    1  py     Ryd( 4p)     0.00026       2.58792
    12    C    1  pz     Val( 2p)     1.00446      -0.11462
    13    C    1  pz     Ryd( 3p)     0.00151       0.68363
    14    C    1  pz     Ryd( 4p)     0.00034       1.52026
    15    C    1  dxy    Ryd( 3d)     0.00181       1.81241
    16    C    1  dxy    Ryd( 4d)     0.00073       3.56237
    17    C    1  dxz    Ryd( 3d)     0.00022       1.42561
    18    C    1  dxz    Ryd( 4d)     0.00023       3.03584
    19    C    1  dyz    Ryd( 3d)     0.00043       1.40685
    20    C    1  dyz    Ryd( 4d)     0.00010       2.99231
    21    C    1  dx2y2  Ryd( 3d)     0.00157       1.80569
    22    C    1  dx2y2  Ryd( 4d)     0.00045       3.47313
    23    C    1  dz2    Ryd( 3d)     0.00094       1.56058
    24    C    1  dz2    Ryd( 4d)     0.00005       3.33422
    25    C    1  f(0)   Ryd( 4f)     0.00027       3.37732
    26    C    1  f(C1)  Ryd( 4f)     0.00015       3.57318
    27    C    1  f(S1)  Ryd( 4f)     0.00024       3.48431
    28    C    1  f(C2)  Ryd( 4f)     0.00003       3.49998
    29    C    1  f(S2)  Ryd( 4f)     0.00005       3.48030
    30    C    1  f(C3)  Ryd( 4f)     0.00012       4.28804
    31    C    1  f(S3)  Ryd( 4f)     0.00006       3.99743
 
    32    C    2  S      Cor( 1S)     1.99924     -10.38310
    33    C    2  S      Val( 2S)     0.97566      -0.23486
    34    C    2  S      Ryd( 3S)     0.00091       1.10732
    35    C    2  S      Ryd( 4S)     0.00014       1.40082
    36    C    2  S      Ryd( 5S)     0.00000      21.59993
    37    C    2  px     Val( 2p)     1.07705      -0.06508
    38    C    2  px     Ryd( 3p)     0.00387       1.05286
    39    C    2  px     Ryd( 4p)     0.00026       2.19466
    40    C    2  py     Val( 2p)     1.13485      -0.07268
    41    C    2  py     Ryd( 3p)     0.00437       1.14310
    42    C    2  py     Ryd( 4p)     0.00016       2.10266
    43    C    2  pz     Val( 2p)     0.99981      -0.11441
    44    C    2  pz     Ryd( 3p)     0.00150       0.72554
    45    C    2  pz     Ryd( 4p)     0.00034       1.37719
    46    C    2  dxy    Ryd( 3d)     0.00125       1.87425
    47    C    2  dxy    Ryd( 4d)     0.00071       3.54435
    48    C    2  dxz    Ryd( 3d)     0.00021       1.40425
    49    C    2  dxz    Ryd( 4d)     0.00021       2.99586
    50    C    2  dyz    Ryd( 3d)     0.00034       1.36498
    51    C    2  dyz    Ryd( 4d)     0.00013       2.96118
    52    C    2  dx2y2  Ryd( 3d)     0.00188       1.71029
    53    C    2  dx2y2  Ryd( 4d)     0.00056       3.41988
    54    C    2  dz2    Ryd( 3d)     0.00070       1.54797
    55    C    2  dz2    Ryd( 4d)     0.00008       3.28586
    56    C    2  f(0)   Ryd( 4f)     0.00022       3.36374
    57    C    2  f(C1)  Ryd( 4f)     0.00016       3.58657
    58    C    2  f(S1)  Ryd( 4f)     0.00020       3.43647
    59    C    2  f(C2)  Ryd( 4f)     0.00003       3.48948
    60    C    2  f(S2)  Ryd( 4f)     0.00003       3.43225
    61    C    2  f(C3)  Ryd( 4f)     0.00007       4.27821
    62    C    2  f(S3)  Ryd( 4f)     0.00007       3.95123
 
    63    C    3  S      Cor( 1S)     1.99924     -10.38160
    64    C    3  S      Val( 2S)     0.97631      -0.23521
    65    C    3  S      Ryd( 3S)     0.00090       1.12776
    66    C    3  S      Ryd( 4S)     0.00014       1.36402
    67    C    3  S      Ryd( 5S)     0.00000      21.63697
    68    C    3  px     Val( 2p)     1.16998      -0.07139
    69    C    3  px     Ryd( 3p)     0.00458       1.19146
    70    C    3  px     Ryd( 4p)     0.00017       2.09775
    71    C    3  py     Val( 2p)     1.04677      -0.06521
    72    C    3  py     Ryd( 3p)     0.00360       0.99197
    73    C    3  py     Ryd( 4p)     0.00032       2.23813
    74    C    3  pz     Val( 2p)     1.00204      -0.11437
    75    C    3  pz     Ryd( 3p)     0.00174       0.69915
    76    C    3  pz     Ryd( 4p)     0.00040       1.38192
    77    C    3  dxy    Ryd( 3d)     0.00186       1.72934
    78    C    3  dxy    Ryd( 4d)     0.00051       3.30415
    79    C    3  dxz    Ryd( 3d)     0.00038       1.36201
    80    C    3  dxz    Ryd( 4d)     0.00009       2.80970
    81    C    3  dyz    Ryd( 3d)     0.00020       1.51656
    82    C    3  dyz    Ryd( 4d)     0.00021       3.02221
    83    C    3  dx2y2  Ryd( 3d)     0.00098       1.98548
    84    C    3  dx2y2  Ryd( 4d)     0.00074       3.53117
    85    C    3  dz2    Ryd( 3d)     0.00070       1.60702
    86    C    3  dz2    Ryd( 4d)     0.00009       3.24170
    87    C    3  f(0)   Ryd( 4f)     0.00018       3.35134
    88    C    3  f(C1)  Ryd( 4f)     0.00022       3.46996
    89    C    3  f(S1)  Ryd( 4f)     0.00015       3.55836
    90    C    3  f(C2)  Ryd( 4f)     0.00003       3.37075
    91    C    3  f(S2)  Ryd( 4f)     0.00004       3.53462
    92    C    3  f(C3)  Ryd( 4f)     0.00007       4.27606
    93    C    3  f(S3)  Ryd( 4f)     0.00008       3.93495
 
    94    C    4  S      Cor( 1S)     1.99924     -10.38311
    95    C    4  S      Val( 2S)     0.97568      -0.23487
    96    C    4  S      Ryd( 3S)     0.00091       1.10728
    97    C    4  S      Ryd( 4S)     0.00014       1.40091
    98    C    4  S      Ryd( 5S)     0.00000      21.60003
    99    C    4  px     Val( 2p)     1.07701      -0.06506
   100    C    4  px     Ryd( 3p)     0.00387       1.05289
   101    C    4  px     Ryd( 4p)     0.00026       2.19452
   102    C    4  py     Val( 2p)     1.13486      -0.07267
   103    C    4  py     Ryd( 3p)     0.00437       1.14307
   104    C    4  py     Ryd( 4p)     0.00016       2.10264
   105    C    4  pz     Val( 2p)     0.99981      -0.11441
   106    C    4  pz     Ryd( 3p)     0.00150       0.72552
   107    C    4  pz     Ryd( 4p)     0.00034       1.37719
   108    C    4  dxy    Ryd( 3d)     0.00125       1.87436
   109    C    4  dxy    Ryd( 4d)     0.00071       3.54432
   110    C    4  dxz    Ryd( 3d)     0.00021       1.40427
   111    C    4  dxz    Ryd( 4d)     0.00021       2.99576
   112    C    4  dyz    Ryd( 3d)     0.00034       1.36502
   113    C    4  dyz    Ryd( 4d)     0.00013       2.96117
   114    C    4  dx2y2  Ryd( 3d)     0.00188       1.71026
   115    C    4  dx2y2  Ryd( 4d)     0.00056       3.41990
   116    C    4  dz2    Ryd( 3d)     0.00070       1.54800
   117    C    4  dz2    Ryd( 4d)     0.00008       3.28587
   118    C    4  f(0)   Ryd( 4f)     0.00022       3.36372
   119    C    4  f(C1)  Ryd( 4f)     0.00016       3.58643
   120    C    4  f(S1)  Ryd( 4f)     0.00020       3.43652
   121    C    4  f(C2)  Ryd( 4f)     0.00003       3.48950
   122    C    4  f(S2)  Ryd( 4f)     0.00003       3.43219
   123    C    4  f(C3)  Ryd( 4f)     0.00007       4.27811
   124    C    4  f(S3)  Ryd( 4f)     0.00007       3.95124
 
   125    C    5  S      Cor( 1S)     1.99916     -10.38235
   126    C    5  S      Val( 2S)     0.96953      -0.22834
   127    C    5  S      Ryd( 3S)     0.00097       1.36523
   128    C    5  S      Ryd( 4S)     0.00018       1.47469
   129    C    5  S      Ryd( 5S)     0.00001      21.37593
   130    C    5  px     Val( 2p)     1.07927      -0.06789
   131    C    5  px     Ryd( 3p)     0.00313       1.15978
   132    C    5  px     Ryd( 4p)     0.00018       2.42792
   133    C    5  py     Val( 2p)     1.12675      -0.06841
   134    C    5  py     Ryd( 3p)     0.00400       1.08023
   135    C    5  py     Ryd( 4p)     0.00026       2.58793
   136    C    5  pz     Val( 2p)     1.00446      -0.11462
   137    C    5  pz     Ryd( 3p)     0.00151       0.68360
   138    C    5  pz     Ryd( 4p)     0.00034       1.52029
   139    C    5  dxy    Ryd( 3d)     0.00181       1.81245
   140    C    5  dxy    Ryd( 4d)     0.00073       3.56228
   141    C    5  dxz    Ryd( 3d)     0.00022       1.42564
   142    C    5  dxz    Ryd( 4d)     0.00023       3.03574
   143    C    5  dyz    Ryd( 3d)     0.00043       1.40692
   144    C    5  dyz    Ryd( 4d)     0.00010       2.99232
   145    C    5  dx2y2  Ryd( 3d)     0.00157       1.80571
   146    C    5  dx2y2  Ryd( 4d)     0.00045       3.47318
   147    C    5  dz2    Ryd( 3d)     0.00094       1.56061
   148    C    5  dz2    Ryd( 4d)     0.00005       3.33419
   149    C    5  f(0)   Ryd( 4f)     0.00027       3.37737
   150    C    5  f(C1)  Ryd( 4f)     0.00015       3.57309
   151    C    5  f(S1)  Ryd( 4f)     0.00024       3.48441
   152    C    5  f(C2)  Ryd( 4f)     0.00003       3.50000
   153    C    5  f(S2)  Ryd( 4f)     0.00005       3.48031
   154    C    5  f(C3)  Ryd( 4f)     0.00012       4.28800
   155    C    5  f(S3)  Ryd( 4f)     0.00006       3.99743
 
   156    C    6  S      Cor( 1S)     1.99911     -10.39227
   157    C    6  S      Val( 2S)     0.91085      -0.20220
   158    C    6  S      Ryd( 3S)     0.00080       1.49419
   159    C    6  S      Ryd( 4S)     0.00016       1.64251
   160    C    6  S      Ryd( 5S)     0.00000      21.39198
   161    C    6  px     Val( 2p)     1.04135      -0.05646
   162    C    6  px     Ryd( 3p)     0.00626       1.25042
   163    C    6  px     Ryd( 4p)     0.00044       1.89975
   164    C    6  py     Val( 2p)     1.07315      -0.07215
   165    C    6  py     Ryd( 3p)     0.00398       1.16095
   166    C    6  py     Ryd( 4p)     0.00048       1.50276
   167    C    6  pz     Val( 2p)     1.00441      -0.11020
   168    C    6  pz     Ryd( 3p)     0.00195       0.80464
   169    C    6  pz     Ryd( 4p)     0.00012       1.32840
   170    C    6  dxy    Ryd( 3d)     0.00154       2.37221
   171    C    6  dxy    Ryd( 4d)     0.00043       3.41590
   172    C    6  dxz    Ryd( 3d)     0.00032       1.30716
   173    C    6  dxz    Ryd( 4d)     0.00027       3.35258
   174    C    6  dyz    Ryd( 3d)     0.00011       1.35287
   175    C    6  dyz    Ryd( 4d)     0.00035       3.34803
   176    C    6  dx2y2  Ryd( 3d)     0.00134       2.47331
   177    C    6  dx2y2  Ryd( 4d)     0.00058       3.45233
   178    C    6  dz2    Ryd( 3d)     0.00045       1.83075
   179    C    6  dz2    Ryd( 4d)     0.00022       3.55800
   180    C    6  f(0)   Ryd( 4f)     0.00012       3.54061
   181    C    6  f(C1)  Ryd( 4f)     0.00009       3.73481
   182    C    6  f(S1)  Ryd( 4f)     0.00007       3.65073
   183    C    6  f(C2)  Ryd( 4f)     0.00003       3.61623
   184    C    6  f(S2)  Ryd( 4f)     0.00003       3.65904
   185    C    6  f(C3)  Ryd( 4f)     0.00009       4.37376
   186    C    6  f(S3)  Ryd( 4f)     0.00005       4.29753
 
   187    H    7  S      Val( 1S)     0.78685       0.05133
   188    H    7  S      Ryd( 2S)     0.00033       0.97628
   189    H    7  S      Ryd( 3S)     0.00018       1.81254
   190    H    7  px     Ryd( 2p)     0.00042       3.02773
   191    H    7  py     Ryd( 2p)     0.00005       2.75937
   192    H    7  pz     Ryd( 2p)     0.00007       2.20864
 
   193    H    8  S      Val( 1S)     0.78509       0.05068
   194    H    8  S      Ryd( 2S)     0.00052       1.40196
   195    H    8  S      Ryd( 3S)     0.00014       1.54811
   196    H    8  px     Ryd( 2p)     0.00018       2.86784
   197    H    8  py     Ryd( 2p)     0.00033       2.95522
   198    H    8  pz     Ryd( 2p)     0.00010       2.25244
 
   199    H    9  S      Val( 1S)     0.78482       0.05050
   200    H    9  S      Ryd( 2S)     0.00035       1.04639
   201    H    9  S      Ryd( 3S)     0.00018       1.73048
   202    H    9  px     Ryd( 2p)     0.00014       2.84928
   203    H    9  py     Ryd( 2p)     0.00031       2.93551
   204    H    9  pz     Ryd( 2p)     0.00008       2.21720
 
   205    H   10  S      Val( 1S)     0.78508       0.05064
   206    H   10  S      Ryd( 2S)     0.00052       1.40175
[...]
 78,-0.00001106,-0.00000066,0.00399790,-0.00312123,0.00311877,0.0012878
 8,0.00027668,-0.00029677,-0.00062381,0.00005604,0.00008465,-0.00019943
 ,0.00044824,-0.00034376,0.00044757,0.00002785,0.00091600,-0.00194759,-
 0.00158601,-0.00048002,-0.00001195,0.00006657,-0.00037247,0.00000785,-
 0.00001131,0.00000419,-0.00003729,-0.00004808,-0.00005239,0.00019698,0
 .00016316,-0.00031521,0.00000203,-0.00000009,0.00000357,-0.11866835,-0
 .03404191,-0.01002636,0.04602263,0.02268495,0.01340386,-0.02854877,-0.
 00753381,-0.03451559,-0.03626697,-0.03734867,0.03974970,-0.24734764,-0
 .10256103,-0.10520939,0.54461475,-0.00001360,-0.00001223,0.00000635,0.
 00001810,0.00001395,0.00000950,-0.00000552,-0.00000085,-0.00002194,-0.
 00002017,0.00000330,-0.00000119,-0.00002081,-0.00001115,0.00000570,0.0
 0007935,0.00003334,-0.00006696,0.00000201,-0.00000136,-0.00000072,0.00
 000327,-0.00000698,-0.00000590,0.00000042,0.00000009,0.00000126,0.0000
 0150,-0.00000190,0.00000190,-0.00310796,0.00367984,0.00339673,-0.00008
 288,-0.00062987,-0.00033153,0.00019591,0.00056314,-0.00006559,-0.00010
 789,-0.00027001,0.00021484,0.00000372,0.00007823,-0.00046754,0.0002365
 5,-0.00009117,0.00006148,-0.00010174,0.00019876,-0.00042988,-0.0000388
 0,-0.00001042,-0.00000868,0.00000465,0.00000966,0.00000985,-0.00001968
 ,0.00015253,-0.00001756,-0.00000192,-0.00000151,-0.00000194,-0.0223772
 5,-0.08735272,0.04428700,0.01378611,0.01419460,0.01778076,-0.00740788,
 -0.01003156,-0.01486856,-0.02780124,-0.01445121,0.01589366,-0.11498772
 ,-0.13055835,-0.05247499,0.26854940,0.33472270,-0.00000940,-0.00002509
 ,0.00000980,0.00000405,0.00001041,-0.00000074,-0.00001889,-0.00001450,
 -0.00000577,0.00000193,0.00002446,0.00000517,-0.00005946,-0.00001122,-
 0.00004599,0.00025597,-0.00001651,-0.00009483,-0.00000185,-0.00000303,
 -0.00000059,0.00000740,-0.00000808,0.00000687,-0.00000318,-0.00000275,
 0.00000178,0.00000394,0.00000184,0.00000141,0.00347711,0.00356337,-0.0
 0180649,-0.00015737,0.00015194,-0.00062024,-0.00004428,0.00037394,0.00
 047172,-0.00025241,-0.00012029,-0.00010608,-0.00022764,0.00074340,0.00
 042755,0.00016165,-0.00060795,0.00055034,0.00026698,-0.00039474,-0.000
 51554,0.00001063,0.00001465,0.00001556,0.00010953,0.00002263,0.0000206
 9,0.00027972,0.00000934,-0.00049395,-0.00000262,-0.00000167,-0.0000043
 9,-0.07432767,0.00166153,-0.33297361,0.06240616,0.05060183,-0.03787254
 ,-0.03618904,-0.01542351,-0.05259216,-0.00758382,-0.01838907,0.0714483
 8,-0.04214552,-0.00916423,-0.16507969,0.01674835,-0.09151421,0.6915133
 4,-0.00001186,-0.00000265,-0.00000318,0.00000379,0.00000139,-0.0000019
 9,-0.00000680,-0.00000287,-0.00000497,-0.00000242,0.00000012,0.0000022
 5,-0.00000971,-0.00000661,-0.00000322,0.00002627,0.00000967,-0.0000000
 5,-0.00000161,-0.00000132,-0.00000113,0.00000157,0.00000039,0.00000396
 ,-0.00000215,-0.00000193,0.00000076,0.00000522,0.00000203,-0.00000243,
 -0.00026740,0.00044638,0.00011253,-0.00013621,-0.00007577,-0.00008206,
 0.00006658,0.00012025,0.00000443,0.00001385,-0.00009336,0.00008063,-0.
 00009733,0.00001508,-0.00010496,0.00012220,0.00003093,0.00004809,0.000
 02004,-0.00000482,-0.00002596,-0.00001227,0.00000266,-0.00000268,-0.00
 000294,-0.00000076,0.00000336,0.00000369,0.00005323,-0.00002114,-0.000
 00129,-0.00000087,-0.00000262,-0.23185607,-0.11360791,-0.09260259,-0.0
 1088396,-0.00744533,-0.00990073,0.00114888,-0.00472627,0.00251230,0.00
 002872,0.00048521,0.00075945,0.00360544,-0.00238352,-0.00147416,-0.000
 65036,-0.00239986,-0.00008569,0.24098955,-0.00000203,-0.00000463,-0.00
 000377,-0.00000128,0.00000024,-0.00000259,-0.00000416,-0.00000434,0.00
 000019,0.00000245,0.00000090,0.00000240,-0.00000529,-0.00000642,-0.000
 00473,0.00000281,0.00001349,0.00001621,-0.00000140,-0.00000025,-0.0000
 0038,0.00000075,0.00000114,0.00000353,-0.00000145,-0.00000092,0.000000
 29,0.00000101,0.00000210,-0.00000045,0.00048400,-0.00056282,-0.0002579
 1,0.00018808,0.00008252,0.00010875,-0.00015018,-0.00018105,-0.00001180
 ,-0.00002895,0.00016799,-0.00013416,0.00018361,0.00000527,0.00014307,-
 0.00018847,-0.00016023,-0.00008460,-0.00000500,-0.00000570,0.00003302,
 0.00000445,-0.00000298,-0.00000385,0.00000005,-0.00001036,-0.00000528,
 -0.00002265,0.00002388,0.00003249,-0.00000123,0.00000048,-0.00000155,-
 0.11356590,-0.10435487,-0.04955882,-0.01241188,-0.00387396,-0.00841002
 ,-0.00463284,0.00374715,0.00356613,0.00057684,-0.00062183,0.00036154,-
 0.00260903,0.00545057,0.00157058,0.00260364,0.00430044,0.00187816,0.12
 586286,0.10089558,-0.00000623,-0.00000249,-0.00000493,0.00000037,-0.00
 000053,-0.00000057,-0.00000350,-0.00000238,-0.00000152,0.00000028,-0.0
 0000024,0.00000279,-0.00000250,-0.00000201,-0.00000322,0.00000796,0.00
 000234,0.00001372,-0.00000112,-0.00000042,-0.00000027,0.00000094,0.000
 00084,0.00000306,-0.00000137,-0.00000098,0.00000027,0.00000129,0.00000
 115,-0.00000077,0.00006975,-0.00018406,0.00012000,-0.00002636,0.000074
 68,-0.00000153,0.00001675,-0.00002696,0.00003485,0.00000682,-0.0000061
 0,-0.00000594,-0.00000182,-0.00004311,0.00001233,-0.00005648,0.0000354
 8,-0.00001779,0.00003882,-0.00004825,0.00002968,0.00000142,0.00000142,
 -0.00000176,-0.00000326,-0.00000569,-0.00000346,0.00000029,-0.00003605
 ,0.00001701,-0.00000064,-0.00000001,-0.00000124,-0.09264985,-0.0494766
 5,-0.10547732,0.01544057,0.00880734,0.01162255,0.00207763,0.00306125,-
 0.00128180,0.00065472,0.00054279,-0.00121456,-0.00088948,0.00181604,-0
 .00544125,-0.02546996,-0.01526539,-0.00678520,0.10055232,0.05231303,0.
 10691509,-0.00001655,-0.00000291,-0.00001402,0.00000193,-0.00000207,-0
 .00000256,-0.00001129,-0.00000594,-0.00000282,0.00000119,0.00000259,0.
 00000482,-0.00001293,-0.00001075,-0.00000675,0.00002714,0.00001751,0.0
 0002373,-0.00000141,-0.00000110,-0.00000067,0.00000107,0.00000071,0.00
 000535,-0.00000324,-0.00000331,-0.00000025,0.00000412,0.00000113,-0.00
 000167,0.00027352,0.00042877,-0.00107140,-0.00026621,-0.00022109,-0.00
 000826,-0.00003447,0.00009980,-0.00003588,-0.00000658,-0.00001942,-0.0
 0000934,-0.00000973,-0.00002374,0.00001801,-0.00005622,0.00010170,0.00
 001465,0.00001755,0.00002673,-0.00000947,-0.00002664,-0.00001661,-0.00
 002033,-0.00001137,-0.00001449,-0.00000638,0.00005669,-0.00001771,0.00
 001723,-0.00000146,-0.00000110,-0.00000253,0.00768310,-0.00066993,0.01
 993092,-0.06093891,-0.00680096,-0.04760291,0.00037755,0.00251699,-0.02
 522338,-0.00130538,-0.00582494,-0.00227739,-0.00131565,-0.00045015,0.0
 0029620,0.00021229,-0.00527265,0.00204154,-0.00061297,0.00228563,-0.00
 013105,0.05657659,-0.00000177,0.00000031,-0.00000611,0.00000024,-0.000
 00212,-0.00000189,-0.00000281,-0.00000266,-0.00000030,0.00000038,0.000
 00049,0.00000115,-0.00000361,-0.00000584,-0.00000014,0.00000883,-0.000
 00610,-0.00000289,-0.00000075,0.00000034,-0.00000003,-0.00000023,0.000
 00144,0.00000205,-0.00000216,0.00000012,0.00000003,0.00000015,0.000002
 27,-0.00000021,0.00005635,0.00033314,-0.00058524,-0.00015077,-0.000172
 68,-0.00012741,-0.00006235,0.00002402,-0.00000208,0.00000465,0.0000069
 3,-0.00000003,-0.00002826,-0.00000426,0.00001666,-0.00001091,-0.000047
 99,-0.00001914,0.00000757,-0.00002471,-0.00000831,-0.00002031,-0.00000
 358,-0.00000490,-0.00000974,-0.00000786,-0.00000486,-0.00003171,-0.000
 03469,-0.00004495,-0.00000105,0.00000024,-0.00000053,0.00369933,0.0026
 5667,0.01701526,-0.00639359,-0.04600923,0.02146888,-0.00199315,0.00459
 668,-0.01516822,-0.00553687,0.00397010,-0.00021500,-0.00026403,-0.0009
 0749,-0.00003712,-0.00558924,0.00317990,0.00248032,0.00213188,-0.00234
 117,-0.00096105,0.01112072,0.03806690,-0.00001854,-0.00000433,-0.00001
 438,0.00000356,-0.00000227,-0.00000442,-0.00001301,-0.00000757,-0.0000
 0553,-0.00000202,0.00000228,0.00000579,-0.00001565,-0.00001512,-0.0000
 0671,0.00003704,0.00001560,0.00001554,-0.00000270,-0.00000150,-0.00000
 127,0.00000216,0.00000102,0.00000730,-0.00000478,-0.00000311,0.0000007
 2,0.00000543,0.00000374,-0.00000212,0.00023533,0.00034577,-0.00039996,
 -0.00012082,-0.00017529,-0.00004471,-0.00004291,0.00001953,-0.00001428
 ,-0.00000676,0.00000263,-0.00000930,-0.00002219,0.00000028,0.00001703,
 -0.00006492,-0.00001762,-0.00006510,0.00001856,-0.00000607,-0.00000542
 ,-0.00002210,-0.00000631,-0.00001089,-0.00001368,-0.00001547,-0.000004
 79,0.00000134,0.00000256,-0.00001657,-0.00000251,-0.00000061,-0.000003
 84,-0.00521959,-0.00054998,-0.01313750,-0.04774786,0.02159853,-0.33436
 582,0.00002881,0.00208655,-0.00842829,-0.00245237,-0.00054548,0.001507
 58,0.00031674,-0.00005891,0.00075124,0.00239448,0.00292933,-0.00001579
 ,0.00057459,-0.00042832,0.00066185,0.05220723,-0.02421807,0.35377708,0
 .00000881,0.00000897,0.00000466,-0.00000333,0.00000368,0.00000736,0.00
 001056,0.00000648,0.00000202,0.00000027,-0.00000422,-0.00000676,0.0000
 0737,0.00000817,0.00000856,-0.00002526,-0.00000541,-0.00003681,0.00000
 173,0.00000056,0.00000096,-0.00000110,0.00000008,-0.00000430,0.0000032
 1,0.00000056,-0.00000080,0.00000035,-0.00000787,-0.00000053,-0.0003825
 8,0.00214948,0.00022219,-0.00015663,-0.00005536,-0.00031235,0.00018108
 ,0.00020616,-0.00007953,-0.00001258,-0.00021178,0.00020147,-0.00040428
 ,0.00017830,-0.00033083,0.00024916,-0.00056780,0.00012819,-0.00002271,
 -0.00000031,-0.00001014,-0.00001529,0.00001527,0.00002467,0.00006442,-
 0.00001420,-0.00002981,0.00009333,-0.00012179,-0.00056596,0.00000108,-
 0.00000015,0.00000224,-0.00072256,-0.00496172,-0.00347025,-0.01062642,
 -0.01213568,0.01625290,-0.16475419,-0.09955042,0.10392821,0.00580476,0
 .00180609,-0.00403049,0.00272487,-0.00206501,-0.00212851,-0.00044602,0
 .00033291,-0.00084667,-0.00060865,-0.00060214,0.00078815,-0.00054914,0
 .00233622,0.00019335,0.16958281,0.00001551,-0.00000556,-0.00000167,-0.
 00000195,-0.00000629,-0.00000776,-0.00000242,-0.00000395,0.00000759,0.
 00000651,0.00000527,0.00000516,0.00000391,-0.00000114,-0.00000313,-0.0
 0001535,0.00000150,0.00004030,0.00000030,0.00000147,0.00000093,0.00000
 028,-0.00000055,-0.00000254,0.,0.00000215,-0.00000008,-0.00001061,0.00
 000770,0.00000330,0.00059329,-0.00307882,-0.00117618,0.00078115,0.0001
 4217,0.00069901,-0.00032605,-0.00043181,0.00013979,-0.00009894,0.00035
 563,-0.00026021,0.00048534,-0.00006221,0.00029650,-0.00051125,-0.00016
 554,-0.00114207,0.00005267,-0.00002307,-0.00001350,0.00002192,0.000009
 21,0.00002108,0.00000715,-0.00003027,-0.00004556,-0.00056616,-0.000810
 70,-0.00091095,0.00000059,0.00000140,0.00000091,-0.00507871,0.00452549
 ,-0.00140213,-0.00823160,-0.00380956,0.00949107,-0.09903852,-0.1165128
 7,0.08682951,-0.00134036,0.00272293,0.00175048,-0.00220674,0.00467093,
 0.00079298,0.00056096,-0.00020268,-0.00033124,-0.00040483,-0.00023101,
 0.00047602,0.00226963,-0.00254343,-0.00076628,0.11265381,0.11615288,0.
 00002220,0.00001092,0.00000558,-0.00000617,-0.00000624,0.00000685,0.00
 001842,0.00000936,0.00001013,0.00000020,0.00000041,-0.00000289,0.00003
 168,0.00002857,0.00001037,-0.00003380,-0.00008491,-0.00000525,0.000003
 84,0.00000355,0.00000301,-0.00000434,-0.00000239,-0.00001275,0.0000058
 9,0.00000487,-0.00000118,-0.00001615,-0.00000486,0.00000835,0.00153591
 ,0.00021293,0.00116172,-0.00044590,0.00008091,-0.00018302,0.00028035,0
 .00019650,0.00014073,0.00008733,-0.00026061,0.00016973,-0.00036526,-0.
 00031041,0.00013300,-0.00036519,0.00038049,-0.00035278,0.00009498,-0.0
 0008476,0.00005052,0.00001611,-0.00001692,-0.00001438,-0.00001636,-0.0
 0000051,-0.00002608,-0.00000119,-0.00106969,-0.00026158,0.00000534,0.0
 0000201,0.00000724,-0.00304390,-0.00081117,0.00013039,-0.00918576,-0.0
 0737344,0.01130125,0.10258380,0.08721005,-0.15633345,0.02040120,0.0163
 3047,-0.01299922,-0.00255280,0.00039630,-0.00532890,-0.00082228,-0.000
 57224,-0.00068124,-0.00049473,-0.00040798,0.00037064,0.00080072,-0.000
 27365,0.00065675,-0.10977304,-0.09442911,0.16275390,0.00002434,0.00000
 880,0.00001852,0.00000318,0.00000255,0.00000448,0.00001506,0.00001066,
 0.00000108,-0.00000696,0.00000015,-0.00000708,0.00001322,0.00001882,0.
 00001759,-0.00003875,0.00000898,-0.00005645,0.00000504,0.00000136,0.00
 000136,0.00000070,-0.00001061,-0.00001638,0.00000670,0.00000375,-0.000
 00054,-0.00000921,-0.00000510,0.00000512,-0.00082255,0.00183026,0.0003
 0513,-0.00080704,-0.00075477,0.00033783,-0.00000222,0.00020543,-0.0002
 0841,0.00000402,-0.00004677,0.00002085,0.00000770,0.00013329,-0.000172
 71,0.00036276,0.00020892,-0.00000417,-0.00166614,0.00011547,-0.0000684
 1,-0.00005252,0.00000199,0.00003669,0.00001354,0.00002077,0.00000590,-
 0.00001499,0.00011610,0.00001986,0.00000388,0.00000017,0.00000526,-0.0
 0157424,-0.00576309,-0.00192220,-0.00093872,-0.00024943,0.00029919,-0.
 00053781,-0.00488553,0.00181352,0.00767634,-0.00060611,0.01881026,-0.0
 5852161,-0.00744292,-0.04454471,0.00022182,0.00230129,-0.02555226,-0.0
 0011978,0.00007140,-0.00123375,-0.00028113,0.00058701,0.00006381,0.000
 35486,-0.00012579,0.00105196,0.05724974,0.00002402,0.00000543,0.000007
 87,-0.00001068,-0.00000279,0.00000143,0.00001199,0.00000594,0.00001356
 ,0.00000997,-0.00000025,-0.00000917,0.00001552,-0.00000190,0.00000406,
 -0.00006524,-0.00001400,0.00000806,0.00000216,0.00000176,0.00000106,-0
 .00000818,0.00000765,-0.00000460,0.00000270,0.00000331,-0.00000105,-0.
 00000507,-0.00000388,0.00000233,0.00328486,-0.00156144,0.00036545,0.00
 035969,0.00058197,-0.00026982,-0.00037699,-0.00067934,-0.00018773,-0.0
 0008117,0.00045603,-0.00036026,0.00039660,0.00000147,0.00050375,-0.000
 70182,-0.00073528,-0.00002688,0.00010678,0.00030241,0.00023382,0.00001
 143,0.00002080,0.00002904,-0.00000463,-0.00001259,-0.00001205,-0.00000
 403,0.00000864,-0.00002728,0.00000133,0.00000231,0.00000394,-0.0054638
 0,0.00412520,-0.00045279,-0.00056626,-0.00102577,-0.00009694,-0.004886
 50,0.00258166,0.00266647,0.00181992,0.00253114,0.01600025,-0.00705092,
 -0.04561610,0.01659103,-0.00172336,0.00466942,-0.01453699,-0.00015350,
 0.00013980,-0.00070789,0.00060235,-0.00075189,-0.00014702,0.00007445,0
 .00013959,0.00093732,0.01198543,0.03733152,-0.00001634,-0.00000240,-0.
 00001288,-0.00000008,0.00000117,0.00000109,-0.00000616,-0.00000348,-0.
 00000358,0.00000113,-0.00000205,0.00000427,-0.00000390,-0.00000219,-0.
 00000296,0.00003625,-0.00003271,0.00002412,-0.00000223,-0.00000067,-0.
 00000078,-0.00000055,0.00000337,0.00000827,-0.00000352,-0.00000237,0.0
 0000012,0.00000506,0.00000234,-0.00000134,-0.00089395,-0.00122356,0.00
 008393,-0.00050150,0.00051553,-0.00004458,0.00013866,-0.00012314,0.000
 34833,0.00004617,-0.00020523,0.00005289,-0.00022694,-0.00008284,-0.000
 11892,0.00021475,0.00044447,0.00017520,-0.00011733,-0.00050056,0.00038
 517,-0.00001172,0.00004464,0.00003970,0.00003602,-0.00001106,-0.000021
 59,-0.00000902,-0.00008832,0.00001099,-0.00000170,-0.00000013,-0.00000
 210,-0.00255504,-0.00068548,0.00138319,0.00037600,-0.00003095,0.000634
 67,0.00239938,0.00278296,0.00002256,-0.00480099,0.00000027,-0.01467855
 ,-0.04422844,0.01799113,-0.33346377,0.00002277,0.00209068,-0.00802604,
 0.00008018,0.00012242,-0.00048925,0.00005579,-0.00016138,-0.00010251,-
 0.00031550,0.00004544,-0.00075887,0.05014595,-0.02019470,0.35390885,-0
 .00001972,-0.00000515,-0.00001236,0.00000485,0.00000106,-0.00000315,-0
 .00001232,-0.00000650,-0.00000868,-0.00000424,0.00000167,0.00000378,-0
 .00001867,-0.00001609,-0.00000040,0.00002604,0.00002625,0.00001781,-0.
 00000200,-0.00000171,-0.00000135,0.00000334,-0.00000023,0.00000581,-0.
 00000316,-0.00000324,0.00000043,0.00000626,0.00000303,-0.00000334,-0.0
 0012602,-0.00049441,0.00102410,-0.00006402,-0.00005375,-0.00001280,0.0
 0000153,-0.00001127,-0.00004566,-0.00000481,-0.00000612,0.00000424,0.0
 0000671,-0.00009870,-0.00001757,-0.00035716,-0.00006002,-0.00018816,-0
 .00004691,-0.00000368,0.00001089,-0.00002400,-0.00000555,-0.00001351,-
 0.00002710,-0.00002537,-0.00001613,-0.00001302,0.00002030,0.00001669,-
 0.00000337,-0.00000199,-0.00000478,0.00716749,0.00350394,-0.00478967,0
 .00288900,-0.00258405,-0.00210669,-0.00033727,0.00042756,-0.00086577,-
 0.00062765,-0.00482045,-0.00354154,-0.01106785,-0.01247795,0.01658235,
 -0.16239668,-0.10174764,0.10173280,-0.00075201,0.00196631,0.00081930,0
 .00022856,0.00015000,-0.00031003,-0.00035793,0.00050630,0.00018695,-0.
 00056923,0.00239295,0.00013676,0.16650135,-0.00001567,-0.00000599,-0.0
 0000714,0.00000527,-0.00000026,-0.00000268,-0.00000972,-0.00000602,-0.
 00000646,-0.00000153,0.00000152,0.00000290,-0.00001487,-0.00001494,-0.
 00000479,0.00003895,0.00001658,0.00000953,-0.00000201,-0.00000064,-0.0
 0000095,0.00000063,0.00000235,0.00000476,-0.00000314,-0.00000126,0.000
 00068,0.00000404,0.00000309,-0.00000252,-0.00013004,-0.00017511,0.0006
 4728,0.00005197,-0.00009784,-0.00000010,-0.00000357,0.00001260,-0.0000
 1185,-0.00002147,-0.00000130,-0.00000528,0.00002751,-0.00005267,0.0000
 4074,-0.00009716,-0.00001716,-0.00017591,0.00004223,0.00005080,0.00001
 915,-0.00001291,0.00000005,-0.00000655,-0.00002331,-0.00001020,-0.0000
 0367,0.00002444,-0.00000883,0.00002380,-0.00000334,0.00000004,-0.00000
 319,-0.00138856,0.00230183,0.00030569,-0.00221315,0.00578955,0.0010115
 6,0.00028065,-0.00041198,-0.00071871,-0.00516134,0.00454082,-0.0009533
 1,-0.00772641,-0.00355850,0.00942781,-0.10188689,-0.12216591,0.0890272
 7,0.00215009,-0.00246899,-0.00036213,-0.00011542,0.00002616,-0.0000385
 0,0.00052268,-0.00081888,-0.00009576,0.00225754,-0.00251082,-0.0006912
 1,0.11342450,0.11958192,0.00000151,-0.00000019,0.00000093,0.00000047,0
 .00000153,0.00000186,0.00000157,0.00000079,-0.00000070,-0.00000016,-0.
 00000026,-0.00000138,0.00000009,-0.00000020,0.00000222,-0.00000011,-0.
 00000090,-0.00000577,0.00000076,0.00000041,0.00000030,-0.00000074,-0.0
 0000011,-0.00000122,0.00000043,0.00000063,-0.00000038,-0.00000058,-0.0
 0000096,0.00000004,-0.00027354,-0.00029934,0.00050775,0.00007355,-0.00
 001438,-0.00000703,-0.00000875,0.00001084,-0.00001132,-0.00000777,0.00
 000847,-0.00000317,0.00003002,-0.00005104,0.00002136,-0.00011321,-0.00
 006261,-0.00010854,-0.00000911,0.00003418,0.00000175,-0.00000330,-0.00
 000114,0.00000009,-0.00001270,-0.00000520,-0.00000394,0.00000558,-0.00
 000793,0.00000907,-0.00000026,0.,0.00000067,0.02095650,0.01684000,-0.0
 1226632,-0.00252119,0.00066922,-0.00530276,-0.00093019,-0.00062080,-0.
 00072261,-0.00330609,-0.00072751,0.00025899,-0.00894527,-0.00735044,0.
 01117179,0.10157245,0.08942577,-0.15675174,0.00007941,-0.00083560,0.00
 092853,0.00101086,0.00085915,-0.00074166,0.00017737,-0.00010765,0.0000
 4144,0.00082271,-0.00033428,0.00064438,-0.10860031,-0.09743046,0.16233
 736\\-0.00004056,-0.00000501,0.00003570,0.00004050,0.00002495,0.000015
 62,-0.00006815,-0.00003888,-0.00003713,0.00003511,0.00001824,0.0000254
 8,0.00001081,-0.00001279,-0.00004783,0.00000330,0.00000239,-0.00000122
 ,0.00000992,0.00000563,0.00000537,0.00001934,0.00002765,-0.00000265,-0
 .00000856,-0.00001391,0.00002594,0.00002372,-0.00000263,0.00002394,0.0
 0002523,0.00001522,0.00001275,-0.00001600,0.00000969,0.00001368,-0.000
 01158,0.00001382,0.00001505,-0.00002631,-0.00001564,-0.00001259,0.0000
 1606,-0.00001059,-0.00001319,0.00001216,-0.00001266,-0.00001549,0.0000
 2303,0.00002659,-0.00002163,-0.00001125,0.00000628,-0.00003879,-0.0000
 2301,-0.00002619,0.00002143,0.00001131,-0.00000655,0.00003883,0.000004
 63,0.00001176,-0.00002835,0.00006850,0.00003911,0.00003668,-0.00003550
 ,-0.00001851,-0.00002490,-0.00001025,0.00001331,0.00004779,-0.00000283
 ,-0.00000249,0.00000043,0.00004044,0.00000483,-0.00003480,-0.00004091,
 -0.00002528,-0.00001559,-0.00000996,-0.00000569,-0.00000520,-0.0000046
 6,-0.00001172,0.00002821,-0.00001936,-0.00002766,0.00000277,-0.0000237
 3,0.00000273,-0.00002427,0.00000854,0.00001398,-0.00002601\\\@
 The archive entry for this job was punched.


 YOU KNOW YOU'RE A TEACHER WHEN YOU SAY 2, WRITE 3, AND MEAN 4.
 -- RONALD ANSTROM, HIGH SCHOOL TEACHER, UNDERWOOD, N.D. 1974
 Job cpu time:       1 days 21 hours 29 minutes 43.5 seconds.
 Elapsed time:       0 days  1 hours 26 minutes 59.6 seconds.
 File lengths (MBytes):  RWF=   1748 Int=      0 D2E=      0 Chk=     34 Scr=      1
 Normal termination of Gaussian 16 at Tue Nov 14 12:47:14 2023.
