 Entering Gaussian System, Link 0=/opt/software/gaussian/g16.c01/g16
 Initial command:
 /opt/software/gaussian/g16.c01/l1.exe "/scratch/jpr52/28713410/Gau-9566.inp" -scrdir="/scratch/jpr52/28713410/"
 Entering Link 1 = /opt/software/gaussian/g16.c01/l1.exe PID=      9568.
  
 Copyright (c) 1988-2019, Gaussian, Inc.  All Rights Reserved.
  
 This is part of the Gaussian(R) 16 program.  It is based on
 the Gaussian(R) 09 system (copyright 2009, Gaussian, Inc.),
 the Gaussian(R) 03 system (copyright 2003, Gaussian, Inc.),
 the Gaussian(R) 98 system (copyright 1998, Gaussian, Inc.),
 the Gaussian(R) 94 system (copyright 1995, Gaussian, Inc.),
 the Gaussian 92(TM) system (copyright 1992, Gaussian, Inc.),
 the Gaussian 90(TM) system (copyright 1990, Gaussian, Inc.),
 the Gaussian 88(TM) system (copyright 1988, Gaussian, Inc.),
 the Gaussian 86(TM) system (copyright 1986, Carnegie Mellon
 University), and the Gaussian 82(TM) system (copyright 1983,
 Carnegie Mellon University). Gaussian is a federally registered
 trademark of Gaussian, Inc.
  
 This software contains proprietary and confidential information,
 including trade secrets, belonging to Gaussian, Inc.
  
 This software is provided under written license and may be
 used, copied, transmitted, or stored only in accord with that
 written license.
  
 The following legend is applicable only to US Government
 contracts under FAR:
  
                    RESTRICTED RIGHTS LEGEND
  
 Use, reproduction and disclosure by the US Government is
 subject to restrictions as set forth in subparagraphs (a)
 and (c) of the Commercial Computer Software - Restricted
 Rights clause in FAR 52.227-19.
  
 Gaussian, Inc.
 340 Quinnipiac St., Bldg. 40, Wallingford CT 06492
  
  
 ---------------------------------------------------------------
 Warning -- This program may not be used in any manner that
 competes with the business of Gaussian, Inc. or will provide
 assistance to any competitor of Gaussian, Inc.  The licensee
 of this program is prohibited from giving any competitor of
 Gaussian, Inc. access to this program.  By using this program,
 the user acknowledges that Gaussian, Inc. is engaged in the
 business of creating and licensing software in the field of
 computational chemistry and represents and warrants to the
 licensee that it is not a competitor of Gaussian, Inc. and that
 it will not use this program in any manner prohibited above.
 ---------------------------------------------------------------
  

 Cite this work as:
 Gaussian 16, Revision C.01,
 M. J. Frisch, G. W. Trucks, H. B. Schlegel, G. E. Scuseria, 
 M. A. Robb, J. R. Cheeseman, G. Scalmani, V. Barone, 
 G. A. Petersson, H. Nakatsuji, X. Li, M. Caricato, A. V. Marenich, 
 J. Bloino, B. G. Janesko, R. Gomperts, B. Mennucci, H. P. Hratchian, 
 J. V. Ortiz, A. F. Izmaylov, J. L. Sonnenberg, D. Williams-Young, 
 F. Ding, F. Lipparini, F. Egidi, J. Goings, B. Peng, A. Petrone, 
 T. Henderson, D. Ranasinghe, V. G. Zakrzewski, J. Gao, N. Rega, 
 G. Zheng, W. Liang, M. Hada, M. Ehara, K. Toyota, R. Fukuda, 
 J. Hasegawa, M. Ishida, T. Nakajima, Y. Honda, O. Kitao, H. Nakai, 
 T. Vreven, K. Throssell, J. A. Montgomery, Jr., J. E. Peralta, 
 F. Ogliaro, M. J. Bearpark, J. J. Heyd, E. N. Brothers, K. N. Kudin, 
 V. N. Staroverov, T. A. Keith, R. Kobayashi, J. Normand, 
 K. Raghavachari, A. P. Rendell, J. C. Burant, S. S. Iyengar, 
 J. Tomasi, M. Cossi, J. M. Millam, M. Klene, C. Adamo, R. Cammi, 
 J. W. Ochterski, R. L. Martin, K. Morokuma, O. Farkas, 
 J. B. Foresman, and D. J. Fox, Gaussian, Inc., Wallingford CT, 2019.
 
 ******************************************
 Gaussian 16:  ES64L-G16RevC.01  3-Jul-2019
                 9-Apr-2024 
 ******************************************
 %nprocshared=32
 Will use up to   32 processors via shared memory.
 %mem=8000MB
 %chk=ph_9_10_dihydrophen_1_1_m062x.chk
 -----------------------------------------------------------
 # opt freq=noraman m062x def2tzvp pop=nbo geom=connectivity
 -----------------------------------------------------------
 1/18=20,19=15,26=3,38=1,57=2/1,3;
 2/9=110,12=2,17=6,18=5,40=1/2;
 3/5=44,7=101,11=2,25=1,30=1,71=1,74=-55/1,2,3;
 4//1;
 5/5=2,38=5/2;
 6/7=2,8=2,9=2,10=2,28=1,40=1/1,7;
 7//1,2,3,16;
 1/18=20,19=15,26=3/3(2);
 2/9=110/2;
 99//99;
 2/9=110/2;
 3/5=44,7=101,11=2,25=1,30=1,71=1,74=-55/1,2,3;
 4/5=5,16=3,69=1/1;
 5/5=2,38=5/2;
 7//1,2,3,16;
 1/18=20,19=15,26=3/3(-5);
 2/9=110/2;
 6/7=2,8=2,9=2,10=2,19=2,28=1,40=1/1,7;
 99/9=1/99;
 -------------------------------------------------------
 /Users/jolenereid/Desktop/ph_2phenanthryl_2_1_m062x.log
 -------------------------------------------------------
 Symbolic Z-matrix:
 Charge =  0 Multiplicity = 1
 C                    -5.9196    0.0926   -0.0072 
 C                    -5.2196   -0.0959   -1.1956 
 C                    -3.8282   -0.1559   -1.1738 
 C                    -3.1238   -0.0303    0.0312 
 C                    -3.8472    0.1579    1.2166 
 C                    -5.2386    0.2202    1.2002 
 H                    -6.9991    0.1399   -0.0219 
 H                    -5.7523   -0.1984   -2.1299 
 H                    -3.2961   -0.3163   -2.0999 
 H                    -3.3288    0.2717    2.1573 
 H                    -5.7856    0.3699    2.1198 
 C                     0.438    -0.7967    1.1105 
 C                    -0.9535   -0.7369    1.0922 
 C                    -1.6325   -0.096     0.0515 
 C                    -0.8703    0.4848   -0.969 
 H                    -1.5064   -1.2021    1.8945 
 H                    -1.3729    0.999    -1.7744 
 C                     1.1959   -0.2202    0.0832 
 C                     0.5277    0.4329   -0.9724 
 C                     1.3466    1.0745   -2.0883 
 C                     2.6088    1.7325   -1.4962 
 C                     3.3975    0.7033   -0.693 
 C                     2.6991   -0.2416    0.0901 
 H                     0.7562    1.8093   -2.6369 
 H                     3.2204    2.1652   -2.2886 
 C                     3.4272   -1.1921    0.822 
 C                     4.7961    0.6713   -0.7196 
 C                     4.8202   -1.2064    0.7897 
 C                     5.5058   -0.2732    0.0182 
 H                     6.5858   -0.2834   -0.0117 
 H                     0.9188   -1.2844    1.9438 
 H                     2.9204   -1.9422    1.4088 
 H                     5.3393    1.3894   -1.3163 
 H                     5.3663   -1.9461    1.3569 
 H                     1.6343    0.3043   -2.8058 
 H                     2.3221    2.5536   -0.8372 
 
 Add virtual bond connecting atoms H34        and C28        Dist= 2.04D+00.
 Add virtual bond connecting atoms H30        and C29        Dist= 2.04D+00.

 GradGradGradGradGradGradGradGradGradGradGradGradGradGradGradGradGradGrad
 Berny optimization.
 Initialization pass.
                           ----------------------------
                           !    Initial Parameters    !
                           ! (Angstroms and Degrees)  !
 --------------------------                            --------------------------
 ! Name  Definition              Value          Derivative Info.                !
 --------------------------------------------------------------------------------
 ! R1    R(1,2)                  1.3921         estimate D2E/DX2                !
 ! R2    R(1,6)                  1.3921         estimate D2E/DX2                !
 ! R3    R(1,7)                  1.0806         estimate D2E/DX2                !
 ! R4    R(2,3)                  1.3929         estimate D2E/DX2                !
 ! R5    R(2,8)                  1.0804         estimate D2E/DX2                !
 ! R6    R(3,4)                  1.4014         estimate D2E/DX2                !
 ! R7    R(3,9)                  1.0801         estimate D2E/DX2                !
 ! R8    R(4,5)                  1.4014         estimate D2E/DX2                !
 ! R9    R(4,14)                 1.4929         estimate D2E/DX2                !
 ! R10   R(5,6)                  1.3929         estimate D2E/DX2                !
 ! R11   R(5,10)                 1.0801         estimate D2E/DX2                !
 ! R12   R(6,11)                 1.0804         estimate D2E/DX2                !
 ! R13   R(12,13)                1.3929         estimate D2E/DX2                !
 ! R14   R(12,18)                1.4008         estimate D2E/DX2                !
 ! R15   R(12,31)                1.0786         estimate D2E/DX2                !
 ! R16   R(13,14)                1.3982         estimate D2E/DX2                !
 ! R17   R(13,16)                1.0797         estimate D2E/DX2                !
 ! R18   R(14,15)                1.3999         estimate D2E/DX2                !
 ! R19   R(15,17)                1.0797         estimate D2E/DX2                !
 ! R20   R(15,19)                1.399          estimate D2E/DX2                !
 ! R21   R(18,19)                1.4097         estimate D2E/DX2                !
 ! R22   R(18,23)                1.5034         estimate D2E/DX2                !
 ! R23   R(19,20)                1.5256         estimate D2E/DX2                !
 ! R24   R(20,21)                1.5417         estimate D2E/DX2                !
 ! R25   R(20,24)                1.0906         estimate D2E/DX2                !
 ! R26   R(20,35)                1.0912         estimate D2E/DX2                !
 ! R27   R(21,22)                1.5253         estimate D2E/DX2                !
 ! R28   R(21,25)                1.0905         estimate D2E/DX2                !
 ! R29   R(21,36)                1.0912         estimate D2E/DX2                !
 ! R30   R(22,23)                1.412          estimate D2E/DX2                !
 ! R31   R(22,27)                1.3992         estimate D2E/DX2                !
 ! R32   R(23,26)                1.4033         estimate D2E/DX2                !
 ! R33   R(26,28)                1.3934         estimate D2E/DX2                !
 ! R34   R(26,32)                1.0788         estimate D2E/DX2                !
 ! R35   R(27,29)                1.3929         estimate D2E/DX2                !
 ! R36   R(27,33)                1.0802         estimate D2E/DX2                !
 ! R37   R(28,34)                1.0803         estimate D2E/DX2                !
 ! R38   R(29,30)                1.0805         estimate D2E/DX2                !
 ! A1    A(2,1,6)              120.4553         estimate D2E/DX2                !
 ! A2    A(2,1,7)              119.7778         estimate D2E/DX2                !
 ! A3    A(6,1,7)              119.7669         estimate D2E/DX2                !
 ! A4    A(1,2,3)              119.6563         estimate D2E/DX2                !
 ! A5    A(1,2,8)              120.2108         estimate D2E/DX2                !
 ! A6    A(3,2,8)              120.1326         estimate D2E/DX2                !
 ! A7    A(2,3,4)              120.7772         estimate D2E/DX2                !
 ! A8    A(2,3,9)              119.0203         estimate D2E/DX2                !
 ! A9    A(4,3,9)              120.196          estimate D2E/DX2                !
 ! A10   A(3,4,5)              118.6784         estimate D2E/DX2                !
 ! A11   A(3,4,14)             120.6536         estimate D2E/DX2                !
 ! A12   A(5,4,14)             120.6679         estimate D2E/DX2                !
 ! A13   A(4,5,6)              120.7769         estimate D2E/DX2                !
 ! A14   A(4,5,10)             120.2054         estimate D2E/DX2                !
 ! A15   A(6,5,10)             119.0116         estimate D2E/DX2                !
 ! A16   A(1,6,5)              119.6558         estimate D2E/DX2                !
 ! A17   A(1,6,11)             120.2166         estimate D2E/DX2                !
 ! A18   A(5,6,11)             120.1274         estimate D2E/DX2                !
 ! A19   A(13,12,18)           120.8783         estimate D2E/DX2                !
 ! A20   A(13,12,31)           118.3508         estimate D2E/DX2                !
 ! A21   A(18,12,31)           120.7637         estimate D2E/DX2                !
 ! A22   A(12,13,14)           120.9712         estimate D2E/DX2                !
 ! A23   A(12,13,16)           118.9012         estimate D2E/DX2                !
 ! A24   A(14,13,16)           120.1259         estimate D2E/DX2                !
 ! A25   A(4,14,13)            121.0254         estimate D2E/DX2                !
 ! A26   A(4,14,15)            121.0457         estimate D2E/DX2                !
 ! A27   A(13,14,15)           117.9288         estimate D2E/DX2                !
 ! A28   A(14,15,17)           119.2051         estimate D2E/DX2                !
 ! A29   A(14,15,19)           122.0375         estimate D2E/DX2                !
 ! A30   A(17,15,19)           118.7539         estimate D2E/DX2                !
 ! A31   A(12,18,19)           118.9058         estimate D2E/DX2                !
 ! A32   A(12,18,23)           122.1259         estimate D2E/DX2                !
 ! A33   A(19,18,23)           118.9451         estimate D2E/DX2                !
 ! A34   A(15,19,18)           119.277          estimate D2E/DX2                !
 ! A35   A(15,19,20)           121.5051         estimate D2E/DX2                !
 ! A36   A(18,19,20)           119.2168         estimate D2E/DX2                !
 ! A37   A(19,20,21)           109.7577         estimate D2E/DX2                !
 ! A38   A(19,20,24)           111.143          estimate D2E/DX2                !
 ! A39   A(19,20,35)           109.0034         estimate D2E/DX2                !
 ! A40   A(21,20,24)           110.4165         estimate D2E/DX2                !
 ! A41   A(21,20,35)           109.7504         estimate D2E/DX2                !
 ! A42   A(24,20,35)           106.7093         estimate D2E/DX2                !
 ! A43   A(20,21,22)           109.7311         estimate D2E/DX2                !
 ! A44   A(20,21,25)           110.4542         estimate D2E/DX2                !
 ! A45   A(20,21,36)           109.7555         estimate D2E/DX2                !
 ! A46   A(22,21,25)           111.1237         estimate D2E/DX2                !
 ! A47   A(22,21,36)           109.0011         estimate D2E/DX2                !
 ! A48   A(25,21,36)           106.7155         estimate D2E/DX2                !
 ! A49   A(21,22,23)           119.1979         estimate D2E/DX2                !
 ! A50   A(21,22,27)           121.4855         estimate D2E/DX2                !
 ! A51   A(23,22,27)           119.316          estimate D2E/DX2                !
 ! A52   A(18,23,22)           118.8474         estimate D2E/DX2                !
 ! A53   A(18,23,26)           122.0612         estimate D2E/DX2                !
 ! A54   A(22,23,26)           119.07           estimate D2E/DX2                !
 ! A55   A(23,26,28)           120.9001         estimate D2E/DX2                !
 ! A56   A(23,26,32)           120.7237         estimate D2E/DX2                !
 ! A57   A(28,26,32)           118.3658         estimate D2E/DX2                !
 ! A58   A(22,27,29)           120.9797         estimate D2E/DX2                !
 ! A59   A(22,27,33)           119.8648         estimate D2E/DX2                !
 ! A60   A(29,27,33)           119.1551         estimate D2E/DX2                !
 ! A61   A(26,28,34)           120.0126         estimate D2E/DX2                !
 ! A62   A(27,29,30)           120.0693         estimate D2E/DX2                !
 ! D1    D(6,1,2,3)             -0.0473         estimate D2E/DX2                !
 ! D2    D(6,1,2,8)            179.7554         estimate D2E/DX2                !
 ! D3    D(7,1,2,3)            179.9723         estimate D2E/DX2                !
 ! D4    D(7,1,2,8)             -0.225          estimate D2E/DX2                !
 ! D5    D(2,1,6,5)             -0.0272         estimate D2E/DX2                !
 ! D6    D(2,1,6,11)           179.7817         estimate D2E/DX2                !
 ! D7    D(7,1,6,5)            179.9532         estimate D2E/DX2                !
 ! D8    D(7,1,6,11)            -0.2379         estimate D2E/DX2                !
 ! D9    D(1,2,3,4)              0.0766         estimate D2E/DX2                !
 ! D10   D(1,2,3,9)            179.1522         estimate D2E/DX2                !
 ! D11   D(8,2,3,4)           -179.7262         estimate D2E/DX2                !
 ! D12   D(8,2,3,9)             -0.6507         estimate D2E/DX2                !
 ! D13   D(2,3,4,5)             -0.0309         estimate D2E/DX2                !
 ! D14   D(2,3,4,14)           179.9562         estimate D2E/DX2                !
 ! D15   D(9,3,4,5)           -179.0955         estimate D2E/DX2                !
 ! D16   D(9,3,4,14)             0.8915         estimate D2E/DX2                !
 ! D17   D(3,4,5,6)             -0.0447         estimate D2E/DX2                !
 ! D18   D(3,4,5,10)          -179.1299         estimate D2E/DX2                !
 ! D19   D(14,4,5,6)           179.9683         estimate D2E/DX2                !
 ! D20   D(14,4,5,10)            0.8831         estimate D2E/DX2                !
 ! D21   D(3,4,14,13)         -141.9148         estimate D2E/DX2                !
 ! D22   D(3,4,14,15)           38.2387         estimate D2E/DX2                !
 ! D23   D(5,4,14,13)           38.0719         estimate D2E/DX2                !
 ! D24   D(5,4,14,15)         -141.7745         estimate D2E/DX2                !
 ! D25   D(4,5,6,1)              0.0737         estimate D2E/DX2                !
 ! D26   D(4,5,6,11)          -179.7354         estimate D2E/DX2                !
 ! D27   D(10,5,6,1)           179.1697         estimate D2E/DX2                !
 ! D28   D(10,5,6,11)           -0.6394         estimate D2E/DX2                !
 ! D29   D(18,12,13,14)         -0.2421         estimate D2E/DX2                !
 ! D30   D(18,12,13,16)        179.2899         estimate D2E/DX2                !
 ! D31   D(31,12,13,14)        178.7926         estimate D2E/DX2                !
 ! D32   D(31,12,13,16)         -1.6754         estimate D2E/DX2                !
 ! D33   D(13,12,18,19)          0.3885         estimate D2E/DX2                !
 ! D34   D(13,12,18,23)        178.6173         estimate D2E/DX2                !
 ! D35   D(31,12,18,19)       -178.6229         estimate D2E/DX2                !
 ! D36   D(31,12,18,23)         -0.3941         estimate D2E/DX2                !
 ! D37   D(12,13,14,4)        -179.9537         estimate D2E/DX2                !
 ! D38   D(12,13,14,15)         -0.1026         estimate D2E/DX2                !
 ! D39   D(16,13,14,4)           0.52           estimate D2E/DX2                !
 ! D40   D(16,13,14,15)       -179.6289         estimate D2E/DX2                !
 ! D41   D(4,14,15,17)           0.8422         estimate D2E/DX2                !
 ! D42   D(4,14,15,19)        -179.8474         estimate D2E/DX2                !
 ! D43   D(13,14,15,17)       -179.0088         estimate D2E/DX2                !
 ! D44   D(13,14,15,19)          0.3015         estimate D2E/DX2                !
 ! D45   D(14,15,19,18)         -0.1547         estimate D2E/DX2                !
 ! D46   D(14,15,19,20)       -179.7754         estimate D2E/DX2                !
 ! D47   D(17,15,19,18)        179.1586         estimate D2E/DX2                !
 ! D48   D(17,15,19,20)         -0.4621         estimate D2E/DX2                !
 ! D49   D(12,18,19,15)         -0.1918         estimate D2E/DX2                !
 ! D50   D(12,18,19,20)        179.4377         estimate D2E/DX2                !
 ! D51   D(23,18,19,15)       -178.4777         estimate D2E/DX2                !
 ! D52   D(23,18,19,20)          1.1518         estimate D2E/DX2                !
 ! D53   D(12,18,23,22)       -159.1427         estimate D2E/DX2                !
 ! D54   D(12,18,23,26)         22.5548         estimate D2E/DX2                !
 ! D55   D(19,18,23,22)         19.0854         estimate D2E/DX2                !
 ! D56   D(19,18,23,26)       -159.2171         estimate D2E/DX2                !
 ! D57   D(15,19,20,21)        141.132          estimate D2E/DX2                !
 ! D58   D(15,19,20,24)         18.6982         estimate D2E/DX2                !
 ! D59   D(15,19,20,35)        -98.6389         estimate D2E/DX2                !
 ! D60   D(18,19,20,21)        -38.489          estimate D2E/DX2                !
 ! D61   D(18,19,20,24)       -160.9227         estimate D2E/DX2                !
 ! D62   D(18,19,20,35)         81.7402         estimate D2E/DX2                !
 ! D63   D(19,20,21,22)         55.2047         estimate D2E/DX2                !
 ! D64   D(19,20,21,25)        178.0516         estimate D2E/DX2                !
 ! D65   D(19,20,21,36)        -64.5534         estimate D2E/DX2                !
 ! D66   D(24,20,21,22)        178.0687         estimate D2E/DX2                !
 ! D67   D(24,20,21,25)        -59.0844         estimate D2E/DX2                !
 ! D68   D(24,20,21,36)         58.3106         estimate D2E/DX2                !
 ! D69   D(35,20,21,22)        -64.5695         estimate D2E/DX2                !
 ! D70   D(35,20,21,25)         58.2775         estimate D2E/DX2                !
 ! D71   D(35,20,21,36)        175.6725         estimate D2E/DX2                !
 ! D72   D(20,21,22,23)        -38.5898         estimate D2E/DX2                !
 ! D73   D(20,21,22,27)        141.132          estimate D2E/DX2                !
 ! D74   D(25,21,22,23)       -161.04           estimate D2E/DX2                !
 ! D75   D(25,21,22,27)         18.6818         estimate D2E/DX2                !
 ! D76   D(36,21,22,23)         81.6281         estimate D2E/DX2                !
 ! D77   D(36,21,22,27)        -98.6501         estimate D2E/DX2                !
 ! D78   D(21,22,23,18)          1.2861         estimate D2E/DX2                !
 ! D79   D(21,22,23,26)        179.6402         estimate D2E/DX2                !
 ! D80   D(27,22,23,18)       -178.4419         estimate D2E/DX2                !
 ! D81   D(27,22,23,26)         -0.0877         estimate D2E/DX2                !
 ! D82   D(21,22,27,29)        179.9936         estimate D2E/DX2                !
 ! D83   D(21,22,27,33)          0.226          estimate D2E/DX2                !
 ! D84   D(23,22,27,29)         -0.2849         estimate D2E/DX2                !
 ! D85   D(23,22,27,33)        179.9475         estimate D2E/DX2                !
 ! D86   D(18,23,26,28)        178.6966         estimate D2E/DX2                !
 ! D87   D(18,23,26,32)         -0.1096         estimate D2E/DX2                !
 ! D88   D(22,23,26,28)          0.3977         estimate D2E/DX2                !
 ! D89   D(22,23,26,32)       -178.4085         estimate D2E/DX2                !
 ! D90   D(23,26,28,34)       -179.855          estimate D2E/DX2                !
 ! D91   D(32,26,28,34)         -1.0212         estimate D2E/DX2                !
 ! D92   D(22,27,29,30)       -179.8865         estimate D2E/DX2                !
 ! D93   D(33,27,29,30)         -0.1173         estimate D2E/DX2                !
 --------------------------------------------------------------------------------
 Trust Radius=3.00D-01 FncErr=1.00D-07 GrdErr=1.00D-06 EigMax=2.50D+02 EigMin=1.00D-04
 Number of steps in this run=    203 maximum allowed number of steps=    216.
 GradGradGradGradGradGradGradGradGradGradGradGradGradGradGradGradGradGrad

                          Input orientation:                          
 ---------------------------------------------------------------------
 Center     Atomic      Atomic             Coordinates (Angstroms)
 Number     Number       Type             X           Y           Z
 ---------------------------------------------------------------------
      1          6           0       -5.919600    0.092600   -0.007200
      2          6           0       -5.219600   -0.095900   -1.195600
      3          6           0       -3.828200   -0.155900   -1.173800
      4          6           0       -3.123800   -0.030300    0.031200
      5          6           0       -3.847200    0.157900    1.216600
      6          6           0       -5.238600    0.220200    1.200200
      7          1           0       -6.999100    0.139900   -0.021900
      8          1           0       -5.752300   -0.198400   -2.129900
      9          1           0       -3.296100   -0.316300   -2.099900
     10          1           0       -3.328800    0.271700    2.157300
     11          1           0       -5.785600    0.369900    2.119800
     12          6           0        0.438000   -0.796700    1.110500
     13          6           0       -0.953500   -0.736900    1.092200
     14          6           0       -1.632500   -0.096000    0.051500
     15          6           0       -0.870300    0.484800   -0.969000
     16          1           0       -1.506400   -1.202100    1.894500
     17          1           0       -1.372900    0.999000   -1.774400
     18          6           0        1.195900   -0.220200    0.083200
     19          6           0        0.527700    0.432900   -0.972400
     20          6           0        1.346600    1.074500   -2.088300
     21          6           0        2.608800    1.732500   -1.496200
     22          6           0        3.397500    0.703300   -0.693000
     23          6           0        2.699100   -0.241600    0.090100
     24          1           0        0.756200    1.809300   -2.636900
     25          1           0        3.220400    2.165200   -2.288600
     26          6           0        3.427200   -1.192100    0.822000
     27          6           0        4.796100    0.671300   -0.719600
     28          6           0        4.820200   -1.206400    0.789700
     29          6           0        5.505800   -0.273200    0.018200
     30          1           0        6.585800   -0.283400   -0.011700
     31          1           0        0.918800   -1.284400    1.943800
     32          1           0        2.920400   -1.942200    1.408800
     33          1           0        5.339300    1.389400   -1.316300
     34          1           0        5.366300   -1.946100    1.356900
     35          1           0        1.634300    0.304300   -2.805800
     36          1           0        2.322100    2.553600   -0.837200
 ---------------------------------------------------------------------
                    Distance matrix (angstroms):
                    1          2          3          4          5
     1  C    0.000000
     2  C    1.392058   0.000000
     3  C    2.407626   1.392864   0.000000
     4  C    2.798763   2.429345   1.401421   0.000000
     5  C    2.407653   2.786863   2.410984   1.401392   0.000000
     6  C    1.392070   2.416638   2.786854   2.429339   1.392891
     7  H    1.080636   2.144713   3.386588   3.879399   3.386544
     8  H    2.149076   1.080367   2.148975   3.406996   3.867224
     9  H    3.380731   2.136864   1.080055   2.157098   3.395254
    10  H    3.380737   3.866807   3.395360   2.157204   1.080095
    11  H    2.149181   3.395468   3.867258   3.406991   2.148979
    12  C    6.516071   6.149606   4.881507   3.799826   4.391521
    13  C    5.153533   4.883085   3.706240   2.516984   3.031442
    14  C    4.291648   3.797703   2.515163   1.492885   2.515317
    15  C    5.155028   4.393742   3.033416   2.518728   3.707512
    16  H    4.976851   4.955830   3.987450   2.731480   2.790787
    17  H    4.961556   4.041153   2.779031   2.717591   3.971862
    18  C    7.122946   6.542891   5.179359   4.324185   5.182703
    19  C    6.528024   5.775890   4.400126   3.815130   4.899704
    20  C    7.621861   6.729170   5.397106   5.069254   6.223992
    21  C    8.811356   8.044703   6.716023   6.188951   7.177645
    22  C    9.362245   8.668664   7.292471   6.602271   7.511971
    23  C    8.625726   8.023719   6.649093   5.827030   6.654521
    24  H    7.377580   6.435629   5.198018   5.055421   6.226385
    25  H    9.645727   8.805727   7.504202   7.102856   8.140433
    26  C    9.471045   8.946481   7.595904   6.700056   7.409123
    27  C   10.754935  10.056312   8.675777   7.986286   8.872378
    28  C   10.847385  10.294280   8.930493   8.066329   8.784497
    29  C   11.431283  10.795321   9.410536   8.633028   9.439312
    30  H   12.511052  11.866096  10.479415   9.712993  10.514321
    31  H    7.243359   6.996308   5.790246   4.644720   5.032276
    32  H    9.181017   8.743645   7.443406   6.487334   7.088566
    33  H   11.408692  10.663539   9.297920   8.686505   9.608536
    34  H   11.549398  11.045351   9.702994   8.803952   9.451724
    35  H    8.058436   7.051868   5.719625   5.549779   6.800587
    36  H    8.641241   8.001596   6.729107   6.090032   6.929483
                    6          7          8          9         10
     6  C    0.000000
     7  H    2.144606   0.000000
     8  H    3.395391   2.472372   0.000000
     9  H    3.866756   4.270645   2.459211   0.000000
    10  H    2.136827   4.270525   4.947164   4.297740   0.000000
    11  H    1.080409   2.472319   4.287659   4.947156   2.459048
    12  C    5.767662   7.580897   7.012701   4.947823   4.052906
    13  C    4.392014   6.209612   5.805204   3.981731   2.791731
    14  C    3.797822   5.372284   4.662804   2.728483   2.728925
    15  C    4.884413   6.211131   5.064422   2.793779   3.982887
    16  H    4.053925   5.970202   5.935560   4.465747   2.358451
    17  H    4.939475   5.955118   4.554041   2.352586   4.451154
    18  C    6.545566   8.203581   7.292172   4.995320   5.001676
    19  C    6.165683   7.592234   6.416911   4.056353   4.969266
    20  C    7.410055   8.648364   7.212239   4.846558   6.366237
    21  C    8.434412   9.849958   8.604530   6.279322   7.122997
    22  C    8.854367  10.433460   9.305729   6.915434   7.318033
    23  C    8.028242   9.706347   8.738217   6.383111   6.393150
    24  H    7.292887   8.352832   6.829969   4.607351   6.483502
    25  H    9.354648  10.661986   9.280147   6.975545   8.139004
    26  C    8.788272  10.544862   9.693522   7.382905   7.040545
    27  C   10.226648  11.827760  10.677737   8.268270   8.628455
    28  C   10.167751  11.923383  11.014440   8.661200   8.394124
    29  C   10.820476  12.511786  11.461446   9.053267   9.106197
    30  H   11.897006  13.591497  12.518894  10.100179  10.164251
    31  H    6.382032   8.281651   7.891641   5.920651   4.528701
    32  H    8.443268  10.236138   9.527799   7.321161   6.671889
    33  H   10.935802  12.468875  11.234173   8.837057   9.404845
    34  H   10.825032  12.615689  11.782848   9.467993   9.009109
    35  H    7.955618   9.072636   7.434474   5.019192   7.018959
    36  H    8.170676   9.663096   8.627892   6.433888   6.790197
                   11         12         13         14         15
    11  H    0.000000
    12  C    6.411929   0.000000
    13  C    5.062624   1.392905   0.000000
    14  C    4.662957   2.428875   1.398160   0.000000
    15  C    5.806381   2.770959   2.397503   1.399892   0.000000
    16  H    4.564373   2.135345   1.079720   2.153139   3.383768
    17  H    5.918824   3.850525   3.377372   2.144838   1.079665
    18  C    7.296390   1.400753   2.430017   2.831303   2.423496
    19  C    7.030180   2.420420   2.797313   2.448381   1.398967
    20  C    8.311007   3.815660   4.322871   3.850175   2.552494
    21  C    9.241108   4.231325   5.048538   4.871079   3.733475
    22  C    9.610012   3.776407   4.918568   5.147238   4.282293
    23  C    8.745499   2.542032   3.819818   4.334218   3.793411
    24  H    8.215425   4.575532   4.828291   4.069834   2.679868
    25  H   10.186517   5.297970   6.105197   5.842922   4.615075
    26  C    9.433971   3.029008   4.412567   5.234087   4.948553
    27  C   10.960174   4.949477   6.190601   6.519988   5.674951
    28  C   10.804484   4.412986   5.800651   6.589026   6.191524
    29  C   11.503304   5.210544   6.564377   7.140577   6.496444
    30  H   12.570665   6.270427   7.633171   8.220679   7.556453
    31  H    6.907725   1.078614   2.128494   3.391493   3.849071
    32  H    9.035805   2.750175   4.069408   5.097020   5.090547
    33  H   11.688009   5.889918   7.065505   7.258325   6.284747
    34  H   11.415373   5.066554   6.439884   7.355960   7.086202
    35  H    8.906220   4.240370   4.793246   4.358484   3.111179
    36  H    8.902089   4.309046   5.027875   4.842420   3.806405
                   16         17         18         19         20
    16  H    0.000000
    17  H    4.280595   0.000000
    18  C    3.398141   3.396448   0.000000
    19  C    3.876842   2.139148   1.409724   0.000000
    20  C    5.402334   2.738597   2.532661   1.525608   0.000000
    21  C    6.086345   4.058245   2.881636   2.508845   1.541653
    22  C    5.862929   4.900365   2.510454   2.896020   2.508155
    23  C    4.675965   4.647218   1.503368   2.509748   2.882152
    24  H    5.892493   2.435890   3.422156   2.171923   1.090626
    25  H    7.153997   4.766847   3.926088   3.461774   2.177355
    26  C    5.048838   5.880746   2.543445   3.777247   4.235117
    27  C    7.075638   6.267101   3.794825   4.282520   3.732956
    28  C    6.422341   7.056407   3.821948   4.921164   5.054828
    29  C    7.318081   7.221386   4.310716   5.124582   4.853100
    30  H    8.364288   8.251822   5.391106   6.175484   5.797014
    31  H    2.427097   4.928571   2.161282   3.406802   4.690976
    32  H    4.514445   6.100479   2.774239   4.127496   4.879245
    33  H    7.993042   6.739132   4.660169   4.917790   4.078823
    34  H    6.933726   7.993464   4.689699   5.873443   6.095196
    35  H    5.850304   3.254174   2.968773   2.145334   1.091231
    36  H    6.018711   4.116813   3.132001   2.781280   2.169006
                   21         22         23         24         25
    21  C    0.000000
    22  C    1.525264   0.000000
    23  C    2.534082   1.412035   0.000000
    24  H    2.176975   3.460990   3.926523   0.000000
    25  H    1.090496   2.171280   3.423836   2.514013   0.000000
    26  C    3.820617   2.426654   1.403302   5.301569   4.581491
    27  C    2.552163   1.399219   2.426192   4.614312   2.678867
    28  C    4.330446   2.805250   2.432970   6.111639   4.837662
    29  C    3.835212   2.429874   2.807799   5.826239   4.060810
    30  H    4.699375   3.406318   3.888258   6.727206   4.744031
    31  H    4.877641   4.128876   2.773644   5.529940   5.925396
    32  H    4.694629   3.412310   2.163327   5.926652   5.534573
    33  H    2.757846   2.151702   3.407166   4.788017   2.457025
    34  H    5.410738   3.885561   3.409407   7.162855   5.898927
    35  H    2.168976   2.780647   3.133376   1.750603   2.499231
    36  H    1.091184   2.144968   2.969033   2.498989   1.750531
                   26         27         28         29         30
    26  C    0.000000
    27  C    2.778971   0.000000
    28  C    1.393448   2.409217   0.000000
    29  C    2.410612   1.392876   1.391446   0.000000
    30  H    3.390803   2.148395   2.147444   1.080462   0.000000
    31  H    2.749368   5.094302   4.069269   5.076517   6.077900
    32  H    1.078810   3.857294   2.129302   3.376925   4.266684
    33  H    3.859093   1.080178   3.382732   2.138423   2.460488
    34  H    2.148195   3.389360   1.080323   2.147131   2.474837
    35  H    4.314468   3.805772   5.035851   4.826696   5.715745
    36  H    4.243166   3.110878   4.798428   4.342632   5.187404
                   31         32         33         34         35
    31  H    0.000000
    32  H    2.173782   0.000000
    33  H    6.108869   4.937287   0.000000
    34  H    4.534595   2.446454   4.274610   0.000000
    35  H    5.059111   4.946076   4.138004   6.026624   0.000000
    36  H    4.943021   5.061096   3.269311   5.859055   3.067215
                   36
    36  H    0.000000
 Stoichiometry    C20H16
 Framework group  C1[X(C20H16)]
 Deg. of freedom   102
 Full point group                 C1      NOp   1
 Largest Abelian subgroup         C1      NOp   1
 Largest concise Abelian subgroup C1      NOp   1
                         Standard orientation:                         
 ---------------------------------------------------------------------
 Center     Atomic      Atomic             Coordinates (Angstroms)
 Number     Number       Type             X           Y           Z
 ---------------------------------------------------------------------
      1          6           0       -5.934933    0.029269    0.016526
      2          6           0       -5.200643    0.915588   -0.766470
      3          6           0       -3.810250    0.833837   -0.780376
      4          6           0       -3.140995   -0.131690   -0.016285
      5          6           0       -3.898589   -1.015113    0.764429
      6          6           0       -5.289143   -0.936688    0.783169
      7          1           0       -7.013718    0.091228    0.029133
      8          1           0       -5.706083    1.661169   -1.362986
      9          1           0       -3.251379    1.517595   -1.402195
     10          1           0       -3.407662   -1.759720    1.373655
     11          1           0       -5.862688   -1.620359    1.392204
     12          6           0        0.390928   -1.533180   -0.021135
     13          6           0       -0.999664   -1.454488   -0.005526
     14          6           0       -1.650682   -0.217469   -0.034006
     15          6           0       -0.861481    0.937979   -0.076437
     16          1           0       -1.573783   -2.368520    0.021419
     17          1           0       -1.342494    1.904553   -0.082694
     18          6           0        1.176039   -0.374200   -0.070916
     19          6           0        0.536203    0.881689   -0.096881
     20          6           0        1.384613    2.148965   -0.138048
     21          6           0        2.627256    1.973514    0.757358
     22          6           0        3.395962    0.726416    0.332777
     23          6           0        2.678488   -0.425198   -0.058196
     24          1           0        0.807789    3.018974    0.177897
     25          1           0        3.259871    2.860459    0.709333
     26          6           0        3.388405   -1.568587   -0.455608
     27          6           0        4.794846    0.700358    0.316720
     28          6           0        4.781798   -1.580224   -0.459875
     29          6           0        5.486183   -0.444383   -0.072798
     30          1           0        6.566623   -0.448830   -0.077959
     31          1           0        0.849267   -2.508613    0.022045
     32          1           0        2.867441   -2.454434   -0.783788
     33          1           0        5.352581    1.576597    0.613236
     34          1           0        5.313824   -2.467565   -0.770794
     35          1           0        1.695174    2.335378   -1.167411
     36          1           0        2.319204    1.863728    1.798384
 ---------------------------------------------------------------------
 Rotational constants (GHZ):           1.1983164           0.1511114           0.1384741
 Standard basis: def2TZVP (5D, 7F)
 There are   816 symmetry adapted cartesian basis functions of A   symmetry.
 There are   716 symmetry adapted basis functions of A   symmetry.
   716 basis functions,  1148 primitive gaussians,   816 cartesian basis functions
    68 alpha electrons       68 beta electrons
       nuclear repulsion energy      1337.4211841334 Hartrees.
 NAtoms=   36 NActive=   36 NUniq=   36 SFac= 1.00D+00 NAtFMM=   60 NAOKFM=F Big=F
 Integral buffers will be    131072 words long.
 Raffenetti 2 integral format.
 Two-electron integral symmetry is turned on.
 One-electron integrals computed using PRISM.
   1 Symmetry operations used in ECPInt.
 ECPInt:  NShTT=   40470 NPrTT=  123744 LenC2=   34272 LenP2D=   75293.
 LDataN:  DoStor=T MaxTD1= 6 Len=  172
 NBasis=   716 RedAO= T EigKep=  5.14D-06  NBF=   716
 NBsUse=   716 1.00D-06 EigRej= -1.00D+00 NBFU=   716
 ExpMin= 9.52D-02 ExpMax= 1.36D+04 ExpMxC= 4.63D+02 IAcc=3 IRadAn=         5 AccDes= 0.00D+00
 Harris functional with IExCor= 1009 and IRadAn=       5 diagonalized for initial guess.
 HarFok:  IExCor= 1009 AccDes= 0.00D+00 IRadAn=         5 IDoV= 1 UseB2=F ITyADJ=14
 ICtDFT=  3500011 ScaDFX=  1.000000  1.000000  1.000000  1.000000
 FoFCou: FMM=F IPFlag=           0 FMFlag=      100000 FMFlg1=           0
         NFxFlg=           0 DoJE=T BraDBF=F KetDBF=T FulRan=T
         wScrn=  0.000000 ICntrl=       500 IOpCl=  0 I1Cent=   200000004 NGrid=           0
         NMat0=    1 NMatS0=      1 NMatT0=    0 NMatD0=    1 NMtDS0=    0 NMtDT0=    0
 Petite list used in FoFCou.
 Requested convergence on RMS density matrix=1.00D-08 within 128 cycles.
 Requested convergence on MAX density matrix=1.00D-06.
 Requested convergence on             energy=1.00D-06.
 No special actions if energy rises.
 Integral accuracy reduced to 1.0D-05 until final iterations.
 Problem detected with inexpensive integrals.
 Switching to full accuracy and repeating last cycle.
 SCF Done:  E(RM062X) =  -771.737983740     A.U. after   13 cycles
            NFock= 13  Conv=0.84D-08     -V/T= 2.0056

 **********************************************************************

            Population analysis using the SCF Density.

 **********************************************************************

 Orbital symmetries:
       Occupied  (A) (A) (A) (A) (A) (A) (A) (A) (A) (A) (A) (A)
                 (A) (A) (A) (A) (A) (A) (A) (A) (A) (A) (A) (A)
                 (A) (A) (A) (A) (A) (A) (A) (A) (A) (A) (A) (A)
                 (A) (A) (A) (A) (A) (A) (A) (A) (A) (A) (A) (A)
                 (A) (A) (A) (A) (A) (A) (A) (A) (A) (A) (A) (A)
                 (A) (A) (A) (A) (A) (A) (A) (A)
       Virtual   (A) (A) (A) (A) (A) (A) (A) (A) (A) (A) (A) (A)
                 (A) (A) (A) (A) (A) (A) (A) (A) (A) (A) (A) (A)
                 (A) (A) (A) (A) (A) (A) (A) (A) (A) (A) (A) (A)
                 (A) (A) (A) (A) (A) (A) (A) (A) (A) (A) (A) (A)
                 (A) (A) (A) (A) (A) (A) (A) (A) (A) (A) (A) (A)
                 (A) (A) (A) (A) (A) (A) (A) (A) (A) (A) (A) (A)
                 (A) (A) (A) (A) (A) (A) (A) (A) (A) (A) (A) (A)
                 (A) (A) (A) (A) (A) (A) (A) (A) (A) (A) (A) (A)
                 (A) (A) (A) (A) (A) (A) (A) (A) (A) (A) (A) (A)
                 (A) (A) (A) (A) (A) (A) (A) (A) (A) (A) (A) (A)
                 (A) (A) (A) (A) (A) (A) (A) (A) (A) (A) (A) (A)
                 (A) (A) (A) (A) (A) (A) (A) (A) (A) (A) (A) (A)
                 (A) (A) (A) (A) (A) (A) (A) (A) (A) (A) (A) (A)
                 (A) (A) (A) (A) (A) (A) (A) (A) (A) (A) (A) (A)
                 (A) (A) (A) (A) (A) (A) (A) (A) (A) (A) (A) (A)
                 (A) (A) (A) (A) (A) (A) (A) (A) (A) (A) (A) (A)
                 (A) (A) (A) (A) (A) (A) (A) (A) (A) (A) (A) (A)
                 (A) (A) (A) (A) (A) (A) (A) (A) (A) (A) (A) (A)
                 (A) (A) (A) (A) (A) (A) (A) (A) (A) (A) (A) (A)
                 (A) (A) (A) (A) (A) (A) (A) (A) (A) (A) (A) (A)
                 (A) (A) (A) (A) (A) (A) (A) (A) (A) (A) (A) (A)
                 (A) (A) (A) (A) (A) (A) (A) (A) (A) (A) (A) (A)
                 (A) (A) (A) (A) (A) (A) (A) (A) (A) (A) (A) (A)
                 (A) (A) (A) (A) (A) (A) (A) (A) (A) (A) (A) (A)
                 (A) (A) (A) (A) (A) (A) (A) (A) (A) (A) (A) (A)
                 (A) (A) (A) (A) (A) (A) (A) (A) (A) (A) (A) (A)
                 (A) (A) (A) (A) (A) (A) (A) (A) (A) (A) (A) (A)
                 (A) (A) (A) (A) (A) (A) (A) (A) (A) (A) (A) (A)
                 (A) (A) (A) (A) (A) (A) (A) (A) (A) (A) (A) (A)
                 (A) (A) (A) (A) (A) (A) (A) (A) (A) (A) (A) (A)
                 (A) (A) (A) (A) (A) (A) (A) (A) (A) (A) (A) (A)
                 (A) (A) (A) (A) (A) (A) (A) (A) (A) (A) (A) (A)
                 (A) (A) (A) (A) (A) (A) (A) (A) (A) (A) (A) (A)
                 (A) (A) (A) (A) (A) (A) (A) (A) (A) (A) (A) (A)
                 (A) (A) (A) (A) (A) (A) (A) (A) (A) (A) (A) (A)
                 (A) (A) (A) (A) (A) (A) (A) (A) (A) (A) (A) (A)
                 (A) (A) (A) (A) (A) (A) (A) (A) (A) (A) (A) (A)
                 (A) (A) (A) (A) (A) (A) (A) (A) (A) (A) (A) (A)
                 (A) (A) (A) (A) (A) (A) (A) (A) (A) (A) (A) (A)
                 (A) (A) (A) (A) (A) (A) (A) (A) (A) (A) (A) (A)
                 (A) (A) (A) (A) (A) (A) (A) (A) (A) (A) (A) (A)
                 (A) (A) (A) (A) (A) (A) (A) (A) (A) (A) (A) (A)
                 (A) (A) (A) (A) (A) (A) (A) (A) (A) (A) (A) (A)
                 (A) (A) (A) (A) (A) (A) (A) (A) (A) (A) (A) (A)
                 (A) (A) (A) (A) (A) (A) (A) (A) (A) (A) (A) (A)
                 (A) (A) (A) (A) (A) (A) (A) (A) (A) (A) (A) (A)
                 (A) (A) (A) (A) (A) (A) (A) (A) (A) (A) (A) (A)
                 (A) (A) (A) (A) (A) (A) (A) (A) (A) (A) (A) (A)
                 (A) (A) (A) (A) (A) (A) (A) (A) (A) (A) (A) (A)
                 (A) (A) (A) (A) (A) (A) (A) (A) (A) (A) (A) (A)
                 (A) (A) (A) (A) (A) (A) (A) (A) (A) (A) (A) (A)
                 (A) (A) (A) (A) (A) (A) (A) (A) (A) (A) (A) (A)
                 (A) (A) (A) (A) (A) (A) (A) (A) (A) (A) (A) (A)
                 (A) (A) (A) (A) (A) (A) (A) (A) (A) (A) (A) (A)
 The electronic state is 1-A.
 Alpha  occ. eigenvalues --  -10.55532 -10.55402 -10.55355 -10.55344 -10.55287
 Alpha  occ. eigenvalues --  -10.55211 -10.54386 -10.54367 -10.54361 -10.54331
 Alpha  occ. eigenvalues --  -10.54324 -10.54292 -10.54281 -10.54238 -10.54138
 Alpha  occ. eigenvalues --  -10.54122 -10.54076 -10.54072 -10.54002 -10.53941
 Alpha  occ. eigenvalues --   -0.98511  -0.96816  -0.94860  -0.90557  -0.87939
 Alpha  occ. eigenvalues --   -0.85235  -0.84611  -0.84322  -0.81116  -0.80506
 Alpha  occ. eigenvalues --   -0.72538  -0.71914  -0.70044  -0.68647  -0.67168
 Alpha  occ. eigenvalues --   -0.66029  -0.62930  -0.60452  -0.58774  -0.55637
 Alpha  occ. eigenvalues --   -0.55127  -0.54222  -0.53103  -0.52039  -0.51359
 Alpha  occ. eigenvalues --   -0.50256  -0.49223  -0.48807  -0.48584  -0.48367
 Alpha  occ. eigenvalues --   -0.46034  -0.45795  -0.44815  -0.44307  -0.43701
 Alpha  occ. eigenvalues --   -0.43460  -0.41325  -0.41139  -0.40331  -0.39843
 Alpha  occ. eigenvalues --   -0.37876  -0.37339  -0.34754  -0.31013  -0.30763
 Alpha  occ. eigenvalues --   -0.30404  -0.29827  -0.26081
 Alpha virt. eigenvalues --   -0.02053   0.01144   0.01908   0.02492   0.02987
 Alpha virt. eigenvalues --    0.06502   0.07764   0.08324   0.08661   0.09472
 Alpha virt. eigenvalues --    0.10037   0.11008   0.11481   0.11883   0.12494
 Alpha virt. eigenvalues --    0.13199   0.13426   0.14211   0.15033   0.15510
 Alpha virt. eigenvalues --    0.16067   0.16505   0.17152   0.17902   0.18138
 Alpha virt. eigenvalues --    0.19226   0.19591   0.19952   0.20912   0.21356
 Alpha virt. eigenvalues --    0.21796   0.22011   0.22924   0.23151   0.23762
 Alpha virt. eigenvalues --    0.24037   0.24398   0.24869   0.25500   0.26243
 Alpha virt. eigenvalues --    0.26427   0.26521   0.27294   0.27757   0.28066
 Alpha virt. eigenvalues --    0.28378   0.28913   0.29865   0.29968   0.30411
 Alpha virt. eigenvalues --    0.31012   0.31501   0.31946   0.32191   0.33021
 Alpha virt. eigenvalues --    0.33346   0.33989   0.34781   0.35274   0.35680
 Alpha virt. eigenvalues --    0.36139   0.36738   0.36818   0.37268   0.37841
 Alpha virt. eigenvalues --    0.38228   0.38677   0.39156   0.39549   0.40011
 Alpha virt. eigenvalues --    0.40514   0.40637   0.41244   0.41724   0.42065
 Alpha virt. eigenvalues --    0.42607   0.43205   0.43412   0.43511   0.44250
 Alpha virt. eigenvalues --    0.44621   0.45043   0.45172   0.45589   0.46116
 Alpha virt. eigenvalues --    0.46247   0.46673   0.47030   0.47066   0.47927
 Alpha virt. eigenvalues --    0.48221   0.49174   0.49599   0.50335   0.50647
 Alpha virt. eigenvalues --    0.51505   0.51693   0.52658   0.52958   0.53176
 Alpha virt. eigenvalues --    0.53475   0.54500   0.54542   0.54847   0.55891
 Alpha virt. eigenvalues --    0.56786   0.57337   0.57782   0.58318   0.58695
 Alpha virt. eigenvalues --    0.60060   0.61376   0.62039   0.63099   0.63449
 Alpha virt. eigenvalues --    0.64351   0.64952   0.66356   0.66789   0.67358
 Alpha virt. eigenvalues --    0.67495   0.69160   0.69399   0.69949   0.70588
 Alpha virt. eigenvalues --    0.70814   0.72195   0.72339   0.73003   0.73478
 Alpha virt. eigenvalues --    0.73907   0.74256   0.74756   0.75421   0.75546
 Alpha virt. eigenvalues --    0.76050   0.77045   0.77262   0.78103   0.78530
 Alpha virt. eigenvalues --    0.79105   0.79633   0.79991   0.80963   0.81172
 Alpha virt. eigenvalues --    0.82820   0.83649   0.83818   0.84758   0.85063
 Alpha virt. eigenvalues --    0.86256   0.86879   0.87491   0.88259   0.89324
 Alpha virt. eigenvalues --    0.89751   0.90758   0.91498   0.92055   0.92488
 Alpha virt. eigenvalues --    0.92762   0.93258   0.94273   0.94861   0.95995
 Alpha virt. eigenvalues --    0.96609   0.96950   0.97547   0.98655   0.99436
 Alpha virt. eigenvalues --    1.00252   1.01110   1.02337   1.02905   1.03570
 Alpha virt. eigenvalues --    1.04020   1.04926   1.06513   1.06775   1.08248
 Alpha virt. eigenvalues --    1.08957   1.09879   1.10554   1.11900   1.12390
 Alpha virt. eigenvalues --    1.14047   1.14508   1.15155   1.16595   1.17534
 Alpha virt. eigenvalues --    1.17934   1.18978   1.20053   1.20464   1.21310
 Alpha virt. eigenvalues --    1.21883   1.22320   1.23796   1.24139   1.24524
 Alpha virt. eigenvalues --    1.25224   1.25554   1.26533   1.27225   1.27637
 Alpha virt. eigenvalues --    1.29208   1.29649   1.30561   1.30677   1.31357
 Alpha virt. eigenvalues --    1.32389   1.34053   1.34975   1.35746   1.36195
 Alpha virt. eigenvalues --    1.36550   1.37173   1.37837   1.38432   1.39898
 Alpha virt. eigenvalues --    1.40267   1.41225   1.41260   1.42933   1.44060
 Alpha virt. eigenvalues --    1.46013   1.46270   1.47549   1.48148   1.48258
 Alpha virt. eigenvalues --    1.48791   1.49863   1.51143   1.51744   1.53069
 Alpha virt. eigenvalues --    1.54199   1.54485   1.55503   1.56254   1.57115
 Alpha virt. eigenvalues --    1.57465   1.58555   1.59011   1.59517   1.60105
 Alpha virt. eigenvalues --    1.60324   1.60587   1.62013   1.63065   1.63628
 Alpha virt. eigenvalues --    1.64578   1.64990   1.65606   1.66195   1.67159
 Alpha virt. eigenvalues --    1.68744   1.68863   1.70139   1.70193   1.71323
 Alpha virt. eigenvalues --    1.71981   1.72128   1.72961   1.74410   1.74926
 Alpha virt. eigenvalues --    1.75745   1.76088   1.76207   1.76963   1.77301
 Alpha virt. eigenvalues --    1.78047   1.78913   1.79935   1.80868   1.81157
 Alpha virt. eigenvalues --    1.84138   1.85804   1.86646   1.89261   1.89505
 Alpha virt. eigenvalues --    1.90280   1.91139   1.91562   1.92476   1.93602
 Alpha virt. eigenvalues --    1.95346   1.95748   1.96732   1.98287   1.98958
 Alpha virt. eigenvalues --    2.01635   2.02733   2.03366   2.04233   2.05407
 Alpha virt. eigenvalues --    2.06760   2.07040   2.07830   2.08555   2.09895
 Alpha virt. eigenvalues --    2.10641   2.11293   2.12518   2.14113   2.14832
 Alpha virt. eigenvalues --    2.15975   2.16291   2.17329   2.18149   2.18943
 Alpha virt. eigenvalues --    2.20030   2.20855   2.21292   2.22477   2.23266
 Alpha virt. eigenvalues --    2.23729   2.24869   2.25192   2.26489   2.26687
 Alpha virt. eigenvalues --    2.27454   2.28319   2.29770   2.31098   2.32534
 Alpha virt. eigenvalues --    2.33229   2.34753   2.35891   2.37457   2.40197
 Alpha virt. eigenvalues --    2.41179   2.41735   2.42913   2.45162   2.46608
 Alpha virt. eigenvalues --    2.47825   2.48615   2.48775   2.49736   2.50782
 Alpha virt. eigenvalues --    2.51363   2.52709   2.53623   2.54909   2.56182
 Alpha virt. eigenvalues --    2.56686   2.57432   2.58974   2.59490   2.60577
 Alpha virt. eigenvalues --    2.61309   2.62083   2.62929   2.63280   2.63581
 Alpha virt. eigenvalues --    2.64348   2.64874   2.65452   2.66266   2.66931
 Alpha virt. eigenvalues --    2.67009   2.67455   2.67997   2.68691   2.69113
 Alpha virt. eigenvalues --    2.69743   2.70138   2.70402   2.71302   2.72597
 Alpha virt. eigenvalues --    2.73250   2.73483   2.73715   2.74392   2.74995
 Alpha virt. eigenvalues --    2.76213   2.76499   2.77206   2.77820   2.78650
 Alpha virt. eigenvalues --    2.79482   2.80100   2.81215   2.81601   2.81771
 Alpha virt. eigenvalues --    2.82526   2.83012   2.84280   2.84603   2.84733
 Alpha virt. eigenvalues --    2.85060   2.85727   2.86284   2.87155   2.87696
 Alpha virt. eigenvalues --    2.88098   2.88570   2.90485   2.90911   2.91168
 Alpha virt. eigenvalues --    2.92016   2.92503   2.93628   2.94886   2.95149
 Alpha virt. eigenvalues --    2.95614   2.97441   2.97790   2.98569   2.99701
 Alpha virt. eigenvalues --    3.01102   3.01993   3.03339   3.03797   3.04092
 Alpha virt. eigenvalues --    3.04666   3.05379   3.06058   3.07070   3.07468
 Alpha virt. eigenvalues --    3.08023   3.08501   3.09733   3.10263   3.11217
 Alpha virt. eigenvalues --    3.11836   3.12334   3.13485   3.13988   3.14831
 Alpha virt. eigenvalues --    3.15058   3.15650   3.16594   3.16981   3.17267
 Alpha virt. eigenvalues --    3.17716   3.18065   3.18927   3.19606   3.20316
 Alpha virt. eigenvalues --    3.20986   3.22033   3.22997   3.23802   3.24301
 Alpha virt. eigenvalues --    3.24713   3.25202   3.25672   3.26075   3.26957
 Alpha virt. eigenvalues --    3.27559   3.28524   3.28853   3.30125   3.30363
 Alpha virt. eigenvalues --    3.31001   3.31541   3.32367   3.33069   3.33328
 Alpha virt. eigenvalues --    3.34577   3.35013   3.35682   3.36085   3.36691
 Alpha virt. eigenvalues --    3.37937   3.38191   3.38650   3.39156   3.39553
 Alpha virt. eigenvalues --    3.40257   3.40600   3.40781   3.41549   3.43115
 Alpha virt. eigenvalues --    3.44397   3.44998   3.45154   3.45774   3.46243
 Alpha virt. eigenvalues --    3.46782   3.47767   3.48677   3.49880   3.50363
 Alpha virt. eigenvalues --    3.50670   3.51233   3.51473   3.52325   3.52422
 Alpha virt. eigenvalues --    3.53913   3.54378   3.55342   3.55809   3.56198
 Alpha virt. eigenvalues --    3.56544   3.58286   3.58468   3.58936   3.59569
 Alpha virt. eigenvalues --    3.60958   3.61660   3.63294   3.63414   3.64571
 Alpha virt. eigenvalues --    3.65590   3.66543   3.67495   3.67784   3.69370
 Alpha virt. eigenvalues --    3.70425   3.73183   3.74022   3.75398   3.76976
 Alpha virt. eigenvalues --    3.78275   3.78994   3.80491   3.82118   3.82607
 Alpha virt. eigenvalues --    3.84354   3.87251   3.88402   3.90063   3.90937
 Alpha virt. eigenvalues --    3.92332   3.93098   3.94677   3.95764   3.96288
 Alpha virt. eigenvalues --    3.97150   3.98671   3.99979   4.01483   4.03135
 Alpha virt. eigenvalues --    4.04326   4.04657   4.05179   4.06291   4.07505
 Alpha virt. eigenvalues --    4.08224   4.09907   4.10194   4.11408   4.12721
 Alpha virt. eigenvalues --    4.13374   4.14273   4.15089   4.16032   4.16355
 Alpha virt. eigenvalues --    4.17077   4.17859   4.18483   4.18608   4.19554
 Alpha virt. eigenvalues --    4.19887   4.20576   4.21226   4.22221   4.22577
 Alpha virt. eigenvalues --    4.24468   4.25020   4.26306   4.26977   4.28306
 Alpha virt. eigenvalues --    4.28770   4.29557   4.31703   4.33031   4.33675
 Alpha virt. eigenvalues --    4.34470   4.36869   4.37061   4.40613   4.41543
 Alpha virt. eigenvalues --    4.42939   4.43806   4.45898   4.50409   4.53195
 Alpha virt. eigenvalues --    4.56189   4.56853   4.57885   4.59284   4.61106
 Alpha virt. eigenvalues --    4.62413   4.63505   4.64523   4.65426   4.65718
 Alpha virt. eigenvalues --    4.67628   4.68891   4.70474   4.72250   4.74929
 Alpha virt. eigenvalues --    4.77861   4.79066   4.81440   4.83926   4.86873
 Alpha virt. eigenvalues --    4.87791   4.89201   4.91430   4.92784   4.94630
 Alpha virt. eigenvalues --    4.98128   5.00756   5.05003   5.06771   5.11688
 Alpha virt. eigenvalues --    5.13436   5.16998   5.19114   5.22436   5.26827
 Alpha virt. eigenvalues --    5.28650   5.29533   5.35329   5.36976   5.39892
 Alpha virt. eigenvalues --    5.43827   5.49008   5.50641   5.55048   5.56729
 Alpha virt. eigenvalues --    5.66431   5.67597   5.87775  22.06509  22.34136
 Alpha virt. eigenvalues --   22.54840  22.64101  22.67845  22.68702  22.71376
 Alpha virt. eigenvalues --   22.75851  22.79553  22.83817  22.87186  22.89240
 Alpha virt. eigenvalues --   22.92875  22.97774  23.02006  23.04163  23.13351
 Alpha virt. eigenvalues --   23.36689  23.48848  23.71306
          Condensed to atoms (all electrons):
               1          2          3          4          5          6
     1  C    4.876449   0.525190  -0.045512  -0.039438  -0.045123   0.525340
     2  C    0.525190   4.898860   0.509172  -0.056426  -0.046158  -0.039666
     3  C   -0.045512   0.509172   5.016059   0.501452  -0.030769  -0.045360
     4  C   -0.039438  -0.056426   0.501452   4.976215   0.503058  -0.058581
     5  C   -0.045123  -0.046158  -0.030769   0.503058   5.015837   0.508558
     6  C    0.525340  -0.039666  -0.045360  -0.058581   0.508558   4.898796
     7  H    0.410369  -0.034893   0.004168   0.000932   0.004284  -0.034849
     8  H   -0.031178   0.408102  -0.031058   0.004501  -0.000028   0.003572
     9  H    0.002468  -0.022619   0.395033  -0.036454   0.005142  -0.000147
    10  H    0.002469  -0.000144   0.005295  -0.037373   0.394109  -0.021148
    11  H   -0.031323   0.003524   0.000045   0.004628  -0.030935   0.407977
    12  C   -0.000038   0.000091  -0.001307   0.007553   0.002563   0.000030
    13  C    0.000079  -0.000537   0.008656  -0.069730  -0.003858   0.001078
    14  C   -0.003438   0.005900  -0.082205   0.276319  -0.073780   0.006880
    15  C    0.000095   0.001030   0.000585  -0.090852   0.007770  -0.000845
    16  H   -0.000060  -0.000110   0.000131  -0.001793   0.003264   0.000630
    17  H   -0.000065   0.000813   0.003255   0.000809  -0.000255  -0.000115
    18  C    0.000004   0.000008   0.000116   0.001814  -0.000188  -0.000056
    19  C   -0.000054  -0.000155   0.003899   0.008489  -0.000350   0.000193
    20  C   -0.000001  -0.000002   0.000250  -0.000891   0.000028   0.000002
    21  C   -0.000000   0.000000  -0.000006  -0.000101   0.000006  -0.000000
    22  C    0.000000  -0.000000   0.000002   0.000035  -0.000001   0.000000
    23  C   -0.000000   0.000001   0.000027  -0.001040   0.000054   0.000000
    24  H   -0.000000   0.000000   0.000050   0.000023   0.000005   0.000000
    25  H   -0.000000  -0.000000  -0.000000   0.000001  -0.000000  -0.000000
    26  C    0.000000  -0.000000  -0.000000   0.000040  -0.000004  -0.000000
    27  C    0.000000  -0.000000   0.000000  -0.000000  -0.000000  -0.000000
    28  C   -0.000000   0.000000   0.000000   0.000000  -0.000000  -0.000000
    29  C    0.000000  -0.000000  -0.000000  -0.000000   0.000000   0.000000
    30  H   -0.000000   0.000000  -0.000000  -0.000000   0.000000   0.000000
    31  H    0.000000  -0.000001   0.000058  -0.000292   0.000027   0.000001
    32  H    0.000000  -0.000000   0.000000   0.000009  -0.000001  -0.000000
    33  H    0.000000  -0.000000   0.000000   0.000000   0.000000   0.000000
    34  H   -0.000000   0.000000   0.000000   0.000000   0.000000  -0.000000
    35  H    0.000000  -0.000000   0.000002  -0.000028  -0.000005  -0.000000
    36  H    0.000000   0.000000  -0.000000  -0.000022  -0.000000  -0.000000
               7          8          9         10         11         12
     1  C    0.410369  -0.031178   0.002468   0.002469  -0.031323  -0.000038
     2  C   -0.034893   0.408102  -0.022619  -0.000144   0.003524   0.000091
     3  C    0.004168  -0.031058   0.395033   0.005295   0.000045  -0.001307
     4  C    0.000932   0.004501  -0.036454  -0.037373   0.004628   0.007553
     5  C    0.004284  -0.000028   0.005142   0.394109  -0.030935   0.002563
     6  C   -0.034849   0.003572  -0.000147  -0.021148   0.407977   0.000030
     7  H    0.516999  -0.004039  -0.000289  -0.000291  -0.004032   0.000000
     8  H   -0.004039   0.509681  -0.003406   0.000065  -0.000281  -0.000000
     9  H   -0.000289  -0.003406   0.489400  -0.000233   0.000066  -0.000191
    10  H   -0.000291   0.000065  -0.000233   0.489000  -0.003433   0.000791
    11  H   -0.004032  -0.000281   0.000066  -0.003433   0.509538  -0.000001
    12  C    0.000000  -0.000000  -0.000191   0.000791  -0.000001   5.092011
    13  C   -0.000005   0.000032   0.000444   0.001831   0.000036   0.460239
    14  C    0.000118  -0.000051   0.003881   0.006269  -0.000056  -0.032101
    15  C   -0.000010   0.000040   0.003593   0.000519   0.000037  -0.091699
    16  H   -0.000000   0.000002   0.000048  -0.002061   0.000057  -0.015336
    17  H   -0.000000   0.000049  -0.002260   0.000034   0.000002  -0.000753
    18  C   -0.000000   0.000000  -0.000105  -0.000118   0.000001   0.486371
    19  C   -0.000000   0.000004   0.001315  -0.000085  -0.000000  -0.031016
    20  C   -0.000000   0.000000   0.000179   0.000006   0.000000   0.007224
    21  C    0.000000  -0.000000  -0.000001   0.000001  -0.000000   0.008808
    22  C   -0.000000   0.000000   0.000001   0.000000   0.000000   0.017631
    23  C   -0.000000   0.000000   0.000007   0.000014   0.000000  -0.068077
    24  H   -0.000000   0.000000   0.000047   0.000001   0.000000  -0.000006
    25  H    0.000000   0.000000  -0.000000  -0.000000   0.000000  -0.000238
    26  C    0.000000   0.000000  -0.000000  -0.000001   0.000000  -0.028104
    27  C   -0.000000  -0.000000  -0.000000  -0.000000   0.000000  -0.000191
    28  C    0.000000   0.000000  -0.000000  -0.000000   0.000000   0.001307
    29  C   -0.000000  -0.000000   0.000000   0.000000  -0.000000  -0.000394
    30  H   -0.000000   0.000000  -0.000000   0.000000  -0.000000  -0.000001
    31  H   -0.000000   0.000000   0.000003   0.000061   0.000000   0.380404
    32  H    0.000000   0.000000  -0.000000  -0.000000   0.000000   0.000913
    33  H    0.000000   0.000000   0.000000   0.000000   0.000000   0.000006
    34  H    0.000000   0.000000   0.000000   0.000000   0.000000   0.000095
    35  H    0.000000  -0.000000  -0.000026  -0.000000   0.000000  -0.000869
    36  H   -0.000000  -0.000000  -0.000001  -0.000000   0.000000   0.000649
              13         14         15         16         17         18
     1  C    0.000079  -0.003438   0.000095  -0.000060  -0.000065   0.000004
     2  C   -0.000537   0.005900   0.001030  -0.000110   0.000813   0.000008
     3  C    0.008656  -0.082205   0.000585   0.000131   0.003255   0.000116
     4  C   -0.069730   0.276319  -0.090852  -0.001793   0.000809   0.001814
     5  C   -0.003858  -0.073780   0.007770   0.003264  -0.000255  -0.000188
     6  C    0.001078   0.006880  -0.000845   0.000630  -0.000115  -0.000056
     7  H   -0.000005   0.000118  -0.000010  -0.000000  -0.000000  -0.000000
     8  H    0.000032  -0.000051   0.000040   0.000002   0.000049   0.000000
     9  H    0.000444   0.003881   0.003593   0.000048  -0.002260  -0.000105
    10  H    0.001831   0.006269   0.000519  -0.002061   0.000034  -0.000118
    11  H    0.000036  -0.000056   0.000037   0.000057   0.000002   0.000001
    12  C    0.460239  -0.032101  -0.091699  -0.015336  -0.000753   0.486371
    13  C    5.042114   0.505291  -0.020863   0.386707   0.005569  -0.051556
    14  C    0.505291   4.953966   0.466749  -0.033134  -0.020561  -0.035932
    15  C   -0.020863   0.466749   5.272040   0.009660   0.359777  -0.055180
    16  H    0.386707  -0.033134   0.009660   0.491821  -0.000255   0.001815
    17  H    0.005569  -0.020561   0.359777  -0.000255   0.487350   0.008313
    18  C   -0.051556  -0.035932  -0.055180   0.001815   0.008313   5.109766
    19  C   -0.040598  -0.051846   0.416215  -0.000498  -0.006628   0.426557
    20  C   -0.001006   0.010181  -0.050882   0.000081  -0.005137  -0.074213
    21  C   -0.001377  -0.000192  -0.006540  -0.000025  -0.000368   0.001577
    22  C   -0.001534   0.000502   0.002445   0.000058   0.000111  -0.061605
    23  C    0.002749   0.000806   0.004914  -0.000247  -0.000124   0.247364
    24  H    0.000049   0.001580  -0.000962  -0.000004   0.003152   0.013975
    25  H    0.000026  -0.000010  -0.000208   0.000000  -0.000024  -0.003858
    26  C    0.003440  -0.000427  -0.000958   0.000025   0.000033  -0.072704
    27  C    0.000088  -0.000033   0.000285   0.000000   0.000000   0.003192
    28  C   -0.000177  -0.000003   0.000140   0.000004  -0.000001   0.005776
    29  C    0.000007  -0.000003  -0.000045  -0.000000  -0.000000  -0.001358
    30  H   -0.000000   0.000000  -0.000000  -0.000000  -0.000000   0.000145
    31  H   -0.005820  -0.000272   0.001613  -0.002327   0.000058  -0.035681
    32  H    0.000994  -0.000108  -0.000115   0.000059   0.000001   0.003856
    33  H   -0.000000   0.000001  -0.000002   0.000000  -0.000000   0.000006
    34  H    0.000001   0.000000   0.000000   0.000000   0.000000  -0.000447
    35  H    0.000677  -0.001975   0.004035   0.000004   0.000724  -0.001440
    36  H   -0.000037  -0.000530   0.003504   0.000000   0.000078   0.001878
              19         20         21         22         23         24
     1  C   -0.000054  -0.000001  -0.000000   0.000000  -0.000000  -0.000000
     2  C   -0.000155  -0.000002   0.000000  -0.000000   0.000001   0.000000
     3  C    0.003899   0.000250  -0.000006   0.000002   0.000027   0.000050
     4  C    0.008489  -0.000891  -0.000101   0.000035  -0.001040   0.000023
     5  C   -0.000350   0.000028   0.000006  -0.000001   0.000054   0.000005
     6  C    0.000193   0.000002  -0.000000   0.000000   0.000000   0.000000
     7  H   -0.000000  -0.000000   0.000000  -0.000000  -0.000000  -0.000000
     8  H    0.000004   0.000000  -0.000000   0.000000   0.000000   0.000000
     9  H    0.001315   0.000179  -0.000001   0.000001   0.000007   0.000047
    10  H   -0.000085   0.000006   0.000001   0.000000   0.000014   0.000001
    11  H   -0.000000   0.000000  -0.000000   0.000000   0.000000   0.000000
    12  C   -0.031016   0.007224   0.008808   0.017631  -0.068077  -0.000006
    13  C   -0.040598  -0.001006  -0.001377  -0.001534   0.002749   0.000049
    14  C   -0.051846   0.010181  -0.000192   0.000502   0.000806   0.001580
    15  C    0.416215  -0.050882  -0.006540   0.002445   0.004914  -0.000962
    16  H   -0.000498   0.000081  -0.000025   0.000058  -0.000247  -0.000004
    17  H   -0.006628  -0.005137  -0.000368   0.000111  -0.000124   0.003152
    18  C    0.426557  -0.074213   0.001577  -0.061605   0.247364   0.013975
    19  C    5.219813   0.235952  -0.051208  -0.031086  -0.057014  -0.059119
    20  C    0.235952   5.224135   0.262620  -0.045735   0.005004   0.436707
    21  C   -0.051208   0.262620   5.217030   0.244848  -0.072075  -0.049638
    22  C   -0.031086  -0.045735   0.244848   5.168687   0.412482   0.015269
    23  C   -0.057014   0.005004  -0.072075   0.412482   5.126414  -0.003853
    24  H   -0.059119   0.436707  -0.049638   0.015269  -0.003853   0.523755
    25  H    0.015975  -0.050586   0.434238  -0.055809   0.015660  -0.004644
    26  C    0.017652   0.006556   0.005760  -0.044454   0.496924  -0.000178
    27  C    0.001648  -0.005816  -0.052933   0.528632  -0.067708  -0.000228
    28  C   -0.000658  -0.000835  -0.001973  -0.041498  -0.059256   0.000016
    29  C    0.000090   0.000050   0.009299  -0.052289  -0.045008  -0.000011
    30  H   -0.000017   0.000049  -0.000318   0.005417   0.000544  -0.000000
    31  H    0.005978  -0.000304   0.000217   0.001479  -0.000031   0.000016
    32  H    0.001823   0.000196  -0.000433   0.004703  -0.038225  -0.000006
    33  H    0.000190   0.000138  -0.008646  -0.039133   0.016202  -0.000030
    34  H    0.000027  -0.000022   0.000106   0.001484   0.004863   0.000000
    35  H   -0.059582   0.425315  -0.040350  -0.008010   0.000893  -0.023333
    36  H   -0.010065  -0.042076   0.430917  -0.057505  -0.005296  -0.001932
              25         26         27         28         29         30
     1  C   -0.000000   0.000000   0.000000  -0.000000   0.000000  -0.000000
     2  C   -0.000000  -0.000000  -0.000000   0.000000  -0.000000   0.000000
     3  C   -0.000000  -0.000000   0.000000   0.000000  -0.000000  -0.000000
     4  C    0.000001   0.000040  -0.000000   0.000000  -0.000000  -0.000000
     5  C   -0.000000  -0.000004  -0.000000  -0.000000   0.000000   0.000000
     6  C   -0.000000  -0.000000  -0.000000  -0.000000   0.000000   0.000000
     7  H    0.000000   0.000000  -0.000000   0.000000  -0.000000  -0.000000
     8  H    0.000000   0.000000  -0.000000   0.000000  -0.000000   0.000000
     9  H   -0.000000  -0.000000  -0.000000  -0.000000   0.000000  -0.000000
    10  H   -0.000000  -0.000001  -0.000000  -0.000000   0.000000   0.000000
    11  H    0.000000   0.000000   0.000000   0.000000  -0.000000  -0.000000
    12  C   -0.000238  -0.028104  -0.000191   0.001307  -0.000394  -0.000001
    13  C    0.000026   0.003440   0.000088  -0.000177   0.000007  -0.000000
    14  C   -0.000010  -0.000427  -0.000033  -0.000003  -0.000003   0.000000
    15  C   -0.000208  -0.000958   0.000285   0.000140  -0.000045  -0.000000
    16  H    0.000000   0.000025   0.000000   0.000004  -0.000000  -0.000000
    17  H   -0.000024   0.000033   0.000000  -0.000001  -0.000000  -0.000000
    18  C   -0.003858  -0.072704   0.003192   0.005776  -0.001358   0.000145
    19  C    0.015975   0.017652   0.001648  -0.000658   0.000090  -0.000017
    20  C   -0.050586   0.006556  -0.005816  -0.000835   0.000050   0.000049
    21  C    0.434238   0.005760  -0.052933  -0.001973   0.009299  -0.000318
    22  C   -0.055809  -0.044454   0.528632  -0.041498  -0.052289   0.005417
    23  C    0.015660   0.496924  -0.067708  -0.059256  -0.045008   0.000544
    24  H   -0.004644  -0.000178  -0.000228   0.000016  -0.000011  -0.000000
    25  H    0.524145   0.000055  -0.003189  -0.000004   0.000531  -0.000032
    26  C    0.000055   5.059250  -0.077676   0.503314  -0.028743   0.005577
    27  C   -0.003189  -0.077676   4.976333  -0.029089   0.513939  -0.037986
    28  C   -0.000004   0.503314  -0.029089   4.899650   0.522696  -0.036073
    29  C    0.000531  -0.028743   0.513939   0.522696   4.884961   0.413637
    30  H   -0.000032   0.005577  -0.037986  -0.036073   0.413637   0.516615
    31  H   -0.000006   0.001617  -0.000077   0.000510  -0.000093  -0.000000
    32  H    0.000015   0.387222   0.002267  -0.015527   0.000380  -0.000361
    33  H    0.003710  -0.000374   0.403338   0.003233  -0.032734  -0.003837
    34  H   -0.000002  -0.031671   0.003876   0.407312  -0.033431  -0.004095
    35  H   -0.001905   0.000583   0.002532  -0.000074  -0.000194  -0.000003
    36  H   -0.022994  -0.000672   0.002283   0.000478  -0.000846   0.000000
              31         32         33         34         35         36
     1  C    0.000000   0.000000   0.000000  -0.000000   0.000000   0.000000
     2  C   -0.000001  -0.000000  -0.000000   0.000000  -0.000000   0.000000
     3  C    0.000058   0.000000   0.000000   0.000000   0.000002  -0.000000
     4  C   -0.000292   0.000009   0.000000   0.000000  -0.000028  -0.000022
     5  C    0.000027  -0.000001   0.000000   0.000000  -0.000005  -0.000000
     6  C    0.000001  -0.000000   0.000000  -0.000000  -0.000000  -0.000000
     7  H   -0.000000   0.000000   0.000000   0.000000   0.000000  -0.000000
     8  H    0.000000   0.000000   0.000000   0.000000  -0.000000  -0.000000
     9  H    0.000003  -0.000000   0.000000   0.000000  -0.000026  -0.000001
    10  H    0.000061  -0.000000   0.000000   0.000000  -0.000000  -0.000000
    11  H    0.000000   0.000000   0.000000   0.000000   0.000000   0.000000
    12  C    0.380404   0.000913   0.000006   0.000095  -0.000869   0.000649
    13  C   -0.005820   0.000994  -0.000000   0.000001   0.000677  -0.000037
    14  C   -0.000272  -0.000108   0.000001   0.000000  -0.001975  -0.000530
    15  C    0.001613  -0.000115  -0.000002   0.000000   0.004035   0.003504
    16  H   -0.002327   0.000059   0.000000   0.000000   0.000004   0.000000
    17  H    0.000058   0.000001  -0.000000   0.000000   0.000724   0.000078
    18  C   -0.035681   0.003856   0.000006  -0.000447  -0.001440   0.001878
    19  C    0.005978   0.001823   0.000190   0.000027  -0.059582  -0.010065
    20  C   -0.000304   0.000196   0.000138  -0.000022   0.425315  -0.042076
    21  C    0.000217  -0.000433  -0.008646   0.000106  -0.040350   0.430917
    22  C    0.001479   0.004703  -0.039133   0.001484  -0.008010  -0.057505
    23  C   -0.000031  -0.038225   0.016202   0.004863   0.000893  -0.005296
    24  H    0.000016  -0.000006  -0.000030   0.000000  -0.023333  -0.001932
    25  H   -0.000006   0.000015   0.003710  -0.000002  -0.001905  -0.022994
    26  C    0.001617   0.387222  -0.000374  -0.031671   0.000583  -0.000672
    27  C   -0.000077   0.002267   0.403338   0.003876   0.002532   0.002283
    28  C    0.000510  -0.015527   0.003233   0.407312  -0.000074   0.000478
    29  C   -0.000093   0.000380  -0.032734  -0.033431  -0.000194  -0.000846
    30  H   -0.000000  -0.000361  -0.003837  -0.004095  -0.000003   0.000000
    31  H    0.508034   0.001430   0.000001   0.000055   0.000001   0.000028
    32  H    0.001430   0.510317   0.000073  -0.003448   0.000029   0.000009
    33  H    0.000001   0.000073   0.521951  -0.000344  -0.000012   0.000292
    34  H    0.000055  -0.003448  -0.000344   0.514453  -0.000001  -0.000001
    35  H    0.000001   0.000029  -0.000012  -0.000001   0.529545   0.006737
    36  H    0.000028   0.000009   0.000292  -0.000001   0.006737   0.528182
 Mulliken charges:
               1
     1  C   -0.146234
     2  C   -0.151980
     3  C   -0.212038
     4  C    0.107145
     5  C   -0.213251
     6  C   -0.152288
     7  H    0.141538
     8  H    0.143994
     9  H    0.164107
    10  H    0.164427
    11  H    0.144150
    12  C   -0.196362
    13  C   -0.223008
    14  C    0.098218
    15  C   -0.235882
    16  H    0.161484
    17  H    0.166421
    18  C    0.081909
    19  C    0.044160
    20  C   -0.337166
    21  C   -0.329244
    22  C    0.034873
    23  C    0.083035
    24  H    0.149298
    25  H    0.149155
    26  C   -0.202082
    27  C   -0.163487
    28  C   -0.159266
    29  C   -0.150439
    30  H    0.140741
    31  H    0.143312
    32  H    0.143926
    33  H    0.135974
    34  H    0.141188
    35  H    0.166728
    36  H    0.166944
 Sum of Mulliken charges =  -0.00000
 Mulliken charges with hydrogens summed into heavy atoms:
               1
     1  C   -0.004696
     2  C   -0.007986
     3  C   -0.047930
     4  C    0.107145
     5  C   -0.048824
     6  C   -0.008138
    12  C   -0.053050
    13  C   -0.061524
    14  C    0.098218
    15  C   -0.069460
    18  C    0.081909
    19  C    0.044160
    20  C   -0.021140
    21  C   -0.013146
    22  C    0.034873
    23  C    0.083035
    26  C   -0.058155
    27  C   -0.027512
    28  C   -0.018078
    29  C   -0.009698
 Electronic spatial extent (au):  <R**2>=           7493.4998
 Charge=             -0.0000 electrons
 Dipole moment (field-independent basis, Debye):
    X=              0.0567    Y=              0.5638    Z=              0.0928  Tot=              0.5742
 Quadrupole moment (field-independent basis, Debye-Ang):
   XX=           -105.0379   YY=           -106.5764   ZZ=           -121.7692
   XY=              1.0309   XZ=             -0.2557   YZ=             -1.7278
 Traceless Quadrupole moment (field-independent basis, Debye-Ang):
   XX=              6.0900   YY=              4.5515   ZZ=            -10.6414
   XY=              1.0309   XZ=             -0.2557   YZ=             -1.7278
 Octapole moment (field-independent basis, Debye-Ang**2):
  XXX=            -13.1398  YYY=             -2.3531  ZZZ=              2.2398  XYY=             11.0571
  XXY=              2.8407  XXZ=              2.5598  XZZ=             -7.6198  YZZ=              4.4096
  YYZ=             -1.9340  XYZ=             29.0157
 Hexadecapole moment (field-independent basis, Debye-Ang**3):
 XXXX=          -8228.7927 YYYY=          -1124.3212 ZZZZ=           -323.0411 XXXY=            -18.5097
 XXXZ=            -23.9698 YYYX=             -3.8619 YYYZ=              2.5970 ZZZX=              4.6628
 ZZZY=             -9.4324 XXYY=          -1631.6720 XXZZ=          -1654.7256 YYZZ=           -246.6229
 XXYZ=            -48.2929 YYXZ=            -13.0736 ZZXY=              8.6055
 N-N= 1.337421184133D+03 E-N=-4.463707631499D+03  KE= 7.674615980383D+02
 ******************************Gaussian NBO Version 3.1******************************
             N A T U R A L   A T O M I C   O R B I T A L   A N D
          N A T U R A L   B O N D   O R B I T A L   A N A L Y S I S
 ******************************Gaussian NBO Version 3.1******************************
       /RESON  / : Allow strongly delocalized NBO set

 Analyzing the SCF density

 Job title: /Users/jolenereid/Desktop/ph_2phenanthryl_2_1_m062x.log         

 Storage needed:   1542608 in NPA,   2054099 in NBO (1048569160 available)
 GSVD:  LWork=      206902 too small for GESVD, short by      401105 words or      401105 for optimal perf.


 NATURAL POPULATIONS:  Natural atomic orbital occupancies 
                                                          
   NAO  Atom  No  lang   Type(AO)    Occupancy      Energy
 ----------------------------------------------------------
     1    C    1  S      Cor( 1S)     1.99924     -10.38082
     2    C    1  S      Val( 2S)     0.97624      -0.23443
     3    C    1  S      Ryd( 3S)     0.00086       1.19422
     4    C    1  S      Ryd( 4S)     0.00008       1.33028
     5    C    1  S      Ryd( 5S)     0.00000      21.62347
     6    C    1  px     Val( 2p)     1.16934      -0.07072
     7    C    1  px     Ryd( 3p)     0.00457       1.19045
     8    C    1  px     Ryd( 4p)     0.00016       2.10235
     9    C    1  py     Val( 2p)     1.03039      -0.08433
    10    C    1  py     Ryd( 3p)     0.00285       0.87467
    11    C    1  py     Ryd( 4p)     0.00035       1.89807
    12    C    1  pz     Val( 2p)     1.01958      -0.09381
    13    C    1  pz     Ryd( 3p)     0.00250       0.81714
    14    C    1  pz     Ryd( 4p)     0.00037       1.72823
    15    C    1  dxy    Ryd( 3d)     0.00125       1.58521
    16    C    1  dxy    Ryd( 4d)     0.00035       3.10795
    17    C    1  dxz    Ryd( 3d)     0.00097       1.51085
    18    C    1  dxz    Ryd( 4d)     0.00026       3.01267
    19    C    1  dyz    Ryd( 3d)     0.00094       1.74589
    20    C    1  dyz    Ryd( 4d)     0.00013       3.44040
    21    C    1  dx2y2  Ryd( 3d)     0.00068       1.81095
    22    C    1  dx2y2  Ryd( 4d)     0.00060       3.31440
    23    C    1  dz2    Ryd( 3d)     0.00024       1.55466
    24    C    1  dz2    Ryd( 4d)     0.00031       3.04138
    25    C    1  f(0)   Ryd( 4f)     0.00007       3.51685
    26    C    1  f(C1)  Ryd( 4f)     0.00006       3.57036
    27    C    1  f(S1)  Ryd( 4f)     0.00018       3.51567
    28    C    1  f(C2)  Ryd( 4f)     0.00014       3.57759
    29    C    1  f(S2)  Ryd( 4f)     0.00020       3.87644
    30    C    1  f(C3)  Ryd( 4f)     0.00006       3.82779
    31    C    1  f(S3)  Ryd( 4f)     0.00004       3.61912
 
    32    C    2  S      Cor( 1S)     1.99924     -10.38234
    33    C    2  S      Val( 2S)     0.97561      -0.23409
    34    C    2  S      Ryd( 3S)     0.00087       1.16826
    35    C    2  S      Ryd( 4S)     0.00008       1.32819
    36    C    2  S      Ryd( 5S)     0.00000      21.62481
    37    C    2  px     Val( 2p)     1.07325      -0.06417
    38    C    2  px     Ryd( 3p)     0.00383       1.04576
    39    C    2  px     Ryd( 4p)     0.00026       2.20144
    40    C    2  py     Val( 2p)     1.08482      -0.08912
[...]
 0,-0.00018830,-0.00015155,-0.00006758,-0.00002210,0.00015354,0.0000986
 6,-0.00107519,-0.00174899,-0.00040114,0.00023065,0.00012168,-0.0003590
 3,0.00006497,0.00000791,0.00003020,0.00013354,0.00086702,-0.00039618,-
 0.00002405,-0.00006572,0.00015119,-0.00004195,-0.00052587,0.00040066,-
 0.00008332,-0.00001039,-0.00007438,-0.00003972,-0.00004703,0.00004575,
 0.10842313,-0.11703988,0.23265995,0.00001804,-0.00000184,0.00000112,-0
 .00000094,-0.00000283,-0.00000267,0.00002935,0.00000083,-0.00000224,-0
 .00006081,-0.00000266,0.00002090,0.00002310,-0.00000332,0.00000167,-0.
 00000285,0.00000201,0.00000435,0.00000410,0.00000080,0.00000005,0.0000
 0539,0.00000008,0.00000311,-0.00000765,-0.00000142,-0.00000756,-0.0000
 0760,0.00000601,0.00000749,0.00000510,-0.00000103,-0.00000280,-0.00108
 351,0.00071687,-0.00006512,-0.00014459,-0.00005541,-0.00007624,-0.0000
 3207,-0.00008493,0.00006261,0.00009889,-0.00002401,0.00009908,-0.00000
 002,0.00005449,0.00002383,0.00002360,-0.00002002,0.00000058,0.00027679
 ,-0.00054337,0.00039936,0.00012581,-0.00000181,-0.00008933,0.00006906,
 -0.00002168,0.00006067,0.00065513,0.00046270,-0.00041668,-0.00114414,0
 .00279802,-0.00186530,0.01195168,0.01029792,-0.00756396,-0.00002000,-0
 .00001545,0.00001134,-0.00012355,0.00018540,-0.00014294,-0.12565874,-0
 .09715805,0.07122438,-0.00082012,0.00074406,-0.00057671,-0.01047636,-0
 .02315861,0.01755559,-0.00571264,0.00100743,-0.00042089,-0.00064161,-0
 .00110522,0.00082604,-0.00273121,0.00143965,0.00065683,0.13431064,-0.0
 0001081,0.00000007,0.00000313,0.00000163,-0.00000823,-0.00000393,-0.00
 003241,0.00000088,0.00000413,0.00003384,0.00004697,-0.00005237,-0.0000
 0306,0.00000507,0.00001334,-0.00000205,-0.00000251,-0.00001099,-0.0000
 0398,0.00000157,-0.00000089,-0.00000562,-0.00000058,-0.00000291,0.0000
 0446,0.00000495,0.00000196,0.00000759,-0.00000441,-0.00001042,-0.00000
 182,-0.00000043,0.00000245,0.00021195,-0.00038916,0.00093075,-0.000076
 14,0.00031996,-0.00059230,-0.00008373,-0.00009838,0.00004896,0.0000216
 4,0.00017453,-0.00011538,0.00002930,0.00002042,0.00003306,-0.00000092,
 -0.00000568,-0.00001846,-0.00079605,-0.00086252,-0.00202241,-0.0001081
 6,0.00015380,0.00007699,-0.00019101,-0.00008688,-0.00014024,-0.0009198
 6,-0.00039029,0.00052590,0.00342239,0.00073806,0.00448751,-0.01315630,
 -0.01063029,0.01097044,0.00006396,0.00002719,0.00000472,0.00020955,-0.
 00034080,0.00015150,-0.09673347,-0.19254028,0.11375577,0.00078358,-0.0
 0019957,-0.00045532,0.00184963,0.00393274,-0.00019926,0.00049762,0.003
 81697,0.00268101,0.00015589,0.00003215,-0.00001885,0.00092453,0.000474
 06,-0.00074104,0.10431753,0.19728447,0.00000359,0.00000194,0.00000474,
 0.00000445,-0.00001450,0.00000103,0.00002458,-0.00000230,-0.00000508,-
 0.00001893,0.00004669,0.00006561,0.00000627,-0.00000091,0.00000581,-0.
 00000708,-0.00000874,-0.00000243,0.00000281,0.00000296,-0.00000083,0.0
 0000306,0.00000138,0.00000111,-0.00000260,0.00001071,-0.00000990,-0.00
 000186,0.00000758,-0.00000066,0.00000365,0.00000018,-0.00000198,0.0006
 4022,-0.00052055,0.00011453,-0.00050324,-0.00023158,-0.00019922,0.0000
 0698,-0.00020013,0.00038044,0.00042742,0.00024919,-0.00013086,0.000008
 83,0.00001046,0.00000431,-0.00001176,0.00000191,0.00000201,0.00206668,
 -0.00203574,-0.00243516,-0.00072700,0.00025434,-0.00047384,-0.00002929
 ,-0.00002410,0.00004787,0.00071735,0.00019324,-0.00016585,-0.00206770,
 0.00500750,0.00323742,0.00767323,0.01148764,-0.00483391,-0.00004236,-0
 .00001793,-0.00000468,-0.00013829,0.00007396,-0.00017391,0.07145339,0.
 11264742,-0.12089538,-0.00065187,-0.00037907,-0.00043689,-0.00073363,0
 .00036131,0.00321960,0.00001805,0.00276662,0.00565604,-0.00009986,0.00
 002915,0.00005309,0.00128787,-0.00026690,0.00065474,-0.07948377,-0.126
 56718,0.11945154,-0.00001412,-0.00000021,0.00000041,0.00000121,0.00000
 546,-0.00000041,-0.00002282,0.00000161,0.00000596,0.00004541,0.0000066
 8,-0.00001189,-0.00001656,0.00000468,-0.00000165,0.00000104,-0.0000033
 9,-0.00000450,-0.00000160,-0.00000005,-0.00000023,-0.00000384,-0.00000
 121,-0.00000139,0.00000277,-0.00000259,0.00000230,0.00000349,-0.000002
 10,-0.00000453,-0.00000279,-0.00000086,0.00000153,-0.00050400,0.000105
 15,-0.00018774,-0.00001757,-0.00001924,0.00011519,-0.00001908,-0.00002
 478,0.00000303,0.00003506,0.00007176,-0.00011428,-0.00005483,0.0000049
 1,0.00000511,-0.00003711,0.00000896,-0.00000642,-0.00005318,-0.0011884
 3,0.00104214,0.00008668,-0.00001264,0.00033779,0.00012177,0.00009428,-
 0.00036506,0.00120437,-0.00131391,0.00156496,-0.01147127,-0.02196230,0
 .01752520,-0.00547826,0.00098362,-0.00045848,-0.00001722,0.00000272,-0
 .00001305,-0.00015196,0.00066101,-0.00097896,-0.00104359,0.00077470,-0
 .00064133,-0.12720603,-0.09308660,0.07529995,-0.00070281,0.00275230,-0
 .00190639,0.01186682,0.01164240,-0.00935994,0.00073459,-0.00053763,0.0
 0029200,0.00002475,-0.00001350,-0.00000145,0.00006556,-0.00010255,0.00
 005488,0.13231402,-0.00001072,-0.00000238,0.00000039,-0.00000048,0.000
 00446,0.00000132,-0.00001474,-0.00000233,0.00000649,0.00002479,-0.0000
 0520,-0.00000493,-0.00001032,0.00000191,-0.00000363,-0.00000043,-0.000
 00052,-0.00000423,-0.00000143,0.00000089,-0.00000012,-0.00000288,-0.00
 000009,-0.00000097,0.00000341,0.00000058,0.00000245,0.00000334,-0.0000
 0064,-0.00000321,-0.00000196,-0.00000041,0.00000113,-0.00005336,-0.000
 04601,-0.00001880,-0.00002753,0.00001886,-0.00002364,0.00000439,-0.000
 00360,0.00001022,-0.00002118,0.00001653,0.00000983,-0.00000590,0.00000
 133,0.00000551,-0.00000458,0.00000469,-0.00000211,0.00027284,-0.000020
 02,0.00004816,0.00002624,0.00004402,-0.00007723,-0.00023853,0.00018096
 ,-0.00015891,0.00072161,-0.00143854,-0.00202303,0.00095029,0.00293415,
 0.00090234,0.00046737,0.00354054,0.00279442,-0.00009689,-0.00004694,-0
 .00004338,-0.00005141,0.00061970,-0.00026938,0.00051224,-0.00001637,-0
 .00058841,-0.09344959,-0.17834374,0.11338154,0.00336828,0.00087316,0.0
 0511511,-0.01258891,-0.01043636,0.01062096,0.00015711,-0.00094147,-0.0
 0237399,-0.00000072,-0.00000045,-0.00002127,-0.00008982,-0.00042712,-0
 .00052219,0.10040665,0.18429845,0.00000828,0.00000049,-0.00000080,-0.0
 0000297,-0.00000444,-0.00000243,0.00001346,0.00000011,0.00000039,-0.00
 002852,0.00000164,0.00000291,0.00001231,-0.00000185,0.00000218,-0.0000
 0231,0.00000034,0.00000222,0.00000270,0.00000007,-0.00000003,0.0000021
 5,0.00000107,0.00000221,-0.00000202,0.00000105,-0.00000331,-0.00000228
 ,0.00000198,0.00000162,0.00000277,0.00000074,-0.00000222,0.00001325,-0
 .00015090,-0.00005271,-0.00004580,0.00000933,-0.00001412,0.00001718,-0
 .00001909,0.00002750,0.00000902,-0.00001982,-0.00000733,0.00000793,0.0
 0002172,0.00001047,0.00000919,-0.00000451,0.00000682,-0.00028868,0.000
 04561,0.00002903,-0.00004676,-0.00002950,0.00005696,-0.00019036,0.0003
 1860,-0.00002139,-0.00107233,-0.00313020,-0.00170325,-0.00025637,0.001
 91061,0.00227204,-0.00009319,0.00247926,0.00526813,-0.00009671,-0.0000
 3111,-0.00001204,0.00037975,0.00004720,-0.00001043,-0.00065270,-0.0004
 0676,-0.00044997,0.07571887,0.11362927,-0.12911731,-0.00239857,0.00511
 808,0.00346136,0.00975982,0.01004131,-0.00519033,-0.00024463,-0.002322
 87,-0.00206086,-0.00001679,0.00000386,-0.00000318,0.00002435,-0.000468
 86,-0.00069818,-0.08159563,-0.12727366,0.12833678,-0.00001707,-0.00000
 146,-0.00000061,0.00000097,0.00000450,0.00000446,-0.00002260,-0.000004
 32,0.00000281,0.00005252,0.00000021,0.00000572,-0.00002688,0.00000135,
 -0.00000518,0.00000200,-0.00000453,-0.00000181,-0.00000302,0.00000120,
 -0.00000014,-0.00000408,0.00000054,-0.00000248,0.00000501,0.00000289,0
 .00000566,0.00000506,0.00000109,-0.00000475,-0.00000492,0.00000119,0.0
 0000235,-0.00000863,0.00001479,-0.00008796,-0.00003674,-0.00002345,0.0
 0001533,-0.00001627,-0.00000879,0.00002080,0.00000167,0.00003341,-0.00
 015826,-0.00003002,-0.00000161,0.00000681,-0.00005478,0.00000769,-0.00
 000824,0.00006302,0.00114050,-0.00096071,-0.00051670,-0.00006788,0.000
 16882,0.00001749,-0.00001567,0.00006645,0.00010887,-0.00000063,-0.0000
 7739,-0.00103867,-0.00078027,0.00059984,-0.00543179,-0.00072344,0.0010
 0030,0.00001119,0.00001802,-0.00000801,-0.00000683,0.00005574,-0.00005
 733,-0.01055463,0.02322427,-0.01701444,-0.00070245,-0.00248548,0.00217
 479,-0.13007820,0.09897606,-0.07224262,0.01205881,-0.01191987,0.008709
 09,0.00071131,0.00045067,-0.00047667,0.00000145,0.00001473,0.00002671,
 0.00103360,-0.00035424,0.00014377,0.00040172,-0.00061253,0.00051482,0.
 13404996,0.00000789,0.00000175,-0.00000158,-0.00000088,-0.00000360,-0.
 00000260,0.00001009,0.00000265,-0.00000221,-0.00001869,-0.00000260,-0.
 00000114,0.00001139,-0.00000114,0.00000602,0.00000044,0.00000008,0.000
 00237,0.00000183,-0.00000073,0.00000008,0.00000148,0.00000043,0.000000
 91,-0.00000275,-0.00000053,-0.00000334,-0.00000241,0.00000083,0.000002
 46,0.00000300,0.00000036,-0.00000144,0.00008616,-0.00002335,-0.0000272
 5,-0.00000315,-0.00000420,0.00000786,-0.00000172,-0.00000991,0.0000196
 6,0.00005346,-0.00000155,-0.00003293,0.00000783,0.00000415,-0.00000222
 ,0.00000537,0.00001345,0.00000410,-0.00009634,0.00013322,0.00007908,-0
 .00003330,-0.00008894,-0.00001927,0.00004897,0.00006835,-0.00004448,-0
 .00000655,-0.00042795,-0.00041343,-0.00094191,-0.00029109,-0.00047105,
 -0.00049130,0.00410599,0.00267058,-0.00001195,-0.00000327,0.00000765,0
 .00001514,0.00006271,-0.00007707,-0.00133310,0.00303090,-0.00017680,-0
 .00297785,0.00075106,0.00520841,0.09887864,-0.19073037,0.11302245,0.01
 294945,-0.01040793,0.00948873,-0.00026950,-0.00081608,-0.00229448,0.00
 002944,0.00000953,0.00003600,0.00026723,-0.00100350,-0.00238864,0.0006
 4432,-0.00055563,0.00056432,-0.10693818,0.19623278,-0.00000771,-0.0000
 0264,-0.00000023,0.00000106,0.00000261,0.00000105,-0.00001218,-0.00000
 181,0.00000239,0.00002718,-0.00000251,0.00000137,-0.00001120,0.0000001
 0,0.00000171,0.00000191,-0.00000058,-0.00000255,-0.00000202,0.00000123
 ,-0.00000026,-0.00000261,0.00000036,-0.00000186,0.00000223,0.00000191,
 0.00000153,0.00000210,0.00000043,-0.00000290,-0.00000131,0.00000001,0.
 00000131,0.00001981,0.00001602,-0.00003987,-0.00000917,-0.00000219,-0.
 00000978,-0.00001929,-0.00000864,0.00001375,0.00004400,-0.00001267,-0.
 00000772,-0.00000304,0.00000077,0.00000459,0.00000373,0.00002102,-0.00
 000133,0.00014658,0.00006990,0.00010784,-0.00008300,-0.00013340,0.0000
 2055,0.00001825,0.00010545,0.00000183,-0.00009974,-0.00068093,-0.00062
 101,0.00032093,-0.00049805,-0.00049429,0.00045371,0.00298086,0.0053602
 2,-0.00004238,-0.00000930,-0.00001098,0.00006259,0.00003557,-0.0000091
 7,0.00182414,-0.00106563,0.00345408,0.00275424,0.00512725,0.00357791,-
 0.07269197,0.11263142,-0.11950832,-0.00981760,0.01073497,-0.00513793,0
 .00008638,-0.00235694,-0.00213167,0.00005005,0.00001629,0.00001892,-0.
 00030476,-0.00227956,-0.00242620,-0.00048304,0.00057243,-0.00030222,0.
 07762966,-0.12518768,0.11806832,-0.00002618,0.00000435,0.00000082,0.00
 000977,-0.00000854,-0.00001653,-0.00005968,0.00000640,0.00005596,0.000
 09316,-0.00001904,0.00009887,-0.00004835,0.00002494,-0.00001663,0.0000
 0750,0.00000218,-0.00000414,-0.00000465,-0.00000014,-0.00000276,-0.000
 01644,-0.00000013,-0.00000433,0.00000483,0.00001030,0.00001437,0.00001
 819,-0.00001068,-0.00001676,-0.00000953,-0.00000201,0.00000248,-0.0009
 0273,-0.00076620,0.00001303,0.00039428,-0.00018713,0.00058901,-0.00006
 551,-0.00082322,-0.00103599,-0.00057603,-0.00157174,0.00120551,0.00001
 956,0.00012154,0.00007901,-0.00009736,0.00063275,0.00035792,-0.0003541
 5,0.00038301,-0.00129309,-0.00677133,0.01107606,0.01355775,-0.06317875
 ,0.05273240,0.04583292,0.00564375,-0.02154254,-0.02028775,0.00202313,-
 0.00070158,0.00098206,0.00029221,0.00071255,0.00055641,-0.00468923,0.0
 1195017,0.01200199,0.00141058,0.00051673,0.00073494,-0.00002878,0.0001
 3288,-0.00010831,-0.00025822,-0.00008179,0.00002206,0.00012957,0.00003
 147,-0.00008473,0.00007282,-0.00013413,0.00005638,0.00000774,0.0000193
 9,0.00003343,-0.00000889,-0.00002485,0.00003678,-0.00002368,0.00001467
 ,0.00000167,0.00002472,-0.00002699,-0.00002220,0.00001210,0.00000028,0
 .00000967,0.07155793,-0.00000714,0.00000085,-0.00000282,-0.00000479,-0
 .00000625,0.00000093,0.00000420,0.00000693,-0.00000544,0.00000987,0.00
 001482,0.00004617,-0.00000846,0.00001988,0.00000233,0.00000546,0.00000
 382,0.00000401,-0.00000329,0.00000027,-0.00000064,-0.00000105,-0.00000
 115,-0.00000163,0.00001353,0.00000654,0.00000284,0.00001245,-0.0000095
 4,-0.00000642,-0.00000411,-0.00000215,0.00000194,-0.00021035,-0.000565
 41,-0.00059109,-0.00011175,-0.00019616,0.00048142,0.00016611,-0.000355
 05,-0.00063020,-0.00061076,-0.00028616,0.00035072,0.00001833,0.0000395
 7,-0.00000170,-0.00010819,0.00015064,-0.00008202,0.00072611,-0.0003129
 2,0.00095230,-0.00339177,0.01240492,0.00952575,0.04908587,-0.17284744,
 -0.11566697,0.00261059,-0.01180994,-0.01030616,0.00035147,0.00030653,0
 .00069997,-0.00122971,0.00071969,-0.00024725,0.00528372,-0.01530213,-0
 .01426367,0.00022859,0.00004364,0.00040080,0.00056278,-0.00039084,0.00
 012375,0.00028237,0.00016147,-0.00002941,-0.00046426,-0.00008468,0.000
 09265,-0.00003488,0.00027203,-0.00027504,-0.00001918,0.00001641,-0.000
 02389,0.00001585,0.00001304,0.00003022,-0.00001539,0.00004057,-0.00000
 132,0.00000805,-0.00002266,0.00000397,-0.00000300,0.00000252,0.0000057
 4,-0.04999448,0.18798056,0.00002915,0.00000119,0.00001095,0.00000143,0
 .00001387,0.00000204,0.00003195,-0.00002115,0.00000047,-0.00014837,0.0
 0008298,-0.00007691,0.00006646,-0.00002533,-0.00001853,-0.00002228,0.0
 0000301,-0.00000162,0.00000607,-0.00000436,0.00000258,0.00001052,0.000
 00065,0.00000487,-0.00001389,-0.00001753,-0.00000587,-0.00002060,0.000
 00313,0.00002177,0.00000788,-0.00000008,-0.00000376,-0.00039046,0.0006
 2667,0.00074582,0.00087135,-0.00026419,0.00005035,0.00034183,0.0013772
 4,-0.00064669,-0.00145268,0.00044429,-0.00032142,-0.00000816,-0.000060
 62,-0.00002182,0.00009733,-0.00039073,-0.00018833,0.00143773,0.0009587
 1,-0.00029115,0.00955465,-0.01438749,-0.01773094,0.04389654,-0.1190612
 2,-0.15767976,0.00175603,-0.00954164,-0.00872981,0.00057353,-0.0003726
 1,0.00023389,0.00000499,-0.00016363,-0.00010185,-0.00368356,0.01092617
 ,0.01116424,0.00002947,0.00040967,0.00078965,-0.00020966,0.00016481,0.
 00001588,-0.00023663,0.00012602,-0.00002542,0.00008236,0.00002451,-0.0
 0004983,-0.00006588,-0.00009855,0.00005495,0.00000266,0.00000191,0.000
 00688,0.00001078,0.00000838,-0.00009430,0.00001955,-0.00003025,-0.0000
 0755,0.00001078,-0.00002003,-0.00001372,-0.00000689,-0.00000168,-0.000
 00482,-0.05039230,0.13020497,0.17279430,0.00002513,-0.00000073,0.00000
 138,-0.00000248,-0.00000821,-0.00000106,0.00004145,-0.00000171,-0.0000
 1997,-0.00007144,0.00004439,0.00002207,0.00002770,-0.00000619,0.000004
 50,-0.00000549,0.00000563,0.00001166,0.00000329,0.00000025,0.00000071,
 0.00000787,0.00000037,0.00000335,-0.00000218,0.00000120,-0.00000546,-0
 .00000720,0.00000129,0.00000933,0.00000492,0.,-0.00000304,-0.00005584,
 -0.00008576,0.00016229,0.00015525,-0.00009889,0.00005287,0.00003950,0.
 00003510,-0.00016130,-0.00024644,0.00002757,-0.00008335,0.00001209,0.0
 0001202,0.00000030,0.00002301,-0.00002641,-0.00002479,0.00031862,0.000
 63901,0.00062713,0.00207151,0.00084836,-0.00079073,0.00560030,-0.02294
 207,-0.01868333,-0.06331514,0.05212115,0.04603351,-0.00637860,0.014422
 49,0.00865062,-0.00040869,-0.00128032,0.00062368,0.00139721,0.00076417
 ,0.00043597,-0.00482047,0.01401790,0.01068155,-0.00093001,-0.00004911,
 -0.00078357,-0.00052200,0.00105815,-0.00172298,0.00046994,0.00052902,-
 0.00029519,-0.00004081,-0.00110918,-0.00064634,-0.00008797,0.00009228,
 0.00001225,-0.00002378,0.00000259,0.00001567,-0.00000373,0.00003239,-0
 .00002953,-0.00011537,0.00039234,0.00056297,0.00001752,0.00010718,0.00
 013280,-0.00460237,-0.00316281,-0.00219170,0.07142470,0.00000442,-0.00
 000053,0.00000179,0.00000085,0.00000083,0.00000070,0.00001130,0.000000
 84,-0.00000849,-0.00002314,0.00001108,0.00000934,0.00000137,0.00000251
 ,-0.00000746,-0.00000370,0.00000383,0.00000643,0.00000151,-0.00000035,
 0.00000073,0.00000284,-0.00000128,0.00000136,-0.00000001,-0.00000213,-
 0.00000155,-0.00000376,-0.00000473,0.00000763,0.00000004,-0.00000181,-
 0.00000040,-0.00014184,0.00005559,0.00010643,0.00001862,-0.00004126,0.
 00001235,-0.00006995,0.00000618,-0.00006693,-0.00019287,-0.00000060,0.
 00014663,-0.00000800,-0.00000202,0.00000026,0.00000906,-0.00001688,-0.
 00002213,-0.00018892,-0.00017347,-0.00007741,0.00060269,0.00023897,-0.
 00032910,0.00197387,-0.01095288,-0.00926528,0.04978647,-0.18904608,-0.
 11684373,0.00894111,-0.01812816,-0.01045318,0.00155403,-0.00001241,0.0
 0084724,0.00004258,0.00085795,0.00029659,-0.00289987,0.01013755,0.0074
 5318,-0.00034567,0.00074231,0.00048501,-0.00148615,-0.00030703,0.00039
 994,0.00083367,0.00008362,-0.00026485,0.00024412,-0.00052316,0.0014329
 9,0.00008090,-0.00006666,0.00008908,0.00001969,-0.00001230,-0.00002368
 ,0.00000583,-0.00008378,0.00002761,0.00009273,-0.00022977,-0.00033705,
 -0.00000351,-0.00004839,-0.00008181,-0.00247685,-0.00001221,-0.0009170
 9,-0.05638345,0.20752664,-0.00001362,0.00000043,-0.00000463,-0.0000050
 7,0.00000234,0.00000710,-0.00000335,0.00000452,-0.00000941,0.00003530,
 -0.00001786,0.00002137,-0.00002582,0.00001010,0.00000125,0.00000362,-0
 .00000200,0.00000030,-0.00000380,0.00000034,-0.00000001,-0.00000259,-0
 .00000205,-0.00000264,0.00000701,0.00000053,0.00000361,0.00000696,-0.0
 0000200,-0.00000533,-0.00000412,-0.00000087,0.00000309,0.00060717,0.00
 005525,-0.00040879,-0.00047629,0.00009514,-0.00010375,-0.00002331,-0.0
 0024160,0.00031900,0.00030084,-0.00001983,0.00014346,-0.00000072,0.000
 00135,-0.00000124,0.00000626,0.00000225,-0.00001949,-0.00123860,-0.000
 11264,0.00075489,0.00030996,0.00071284,0.00025377,0.00247109,-0.010820
 35,-0.00955855,0.04262727,-0.11330012,-0.14146888,-0.00461912,0.013709
 40,0.01261521,0.00053481,0.00089362,-0.00046066,0.00025760,0.00029659,
 -0.00003164,0.00565297,-0.01738805,-0.01420364,-0.00022436,-0.00076470
 ,-0.00058943,-0.00043251,0.00039488,-0.00039540,-0.00017236,0.00043735
 ,-0.00025951,0.00014540,-0.00061159,-0.00047366,-0.00004814,0.00004990
 ,0.00001871,-0.00002126,0.00000845,0.00004412,0.00001810,0.00003898,0.
 00000266,-0.00012486,-0.00003918,0.00018522,0.00001534,0.00002860,0.00
 007572,-0.00295754,-0.00079484,0.00011546,-0.04260227,0.12737483,0.153
 43174\\-0.00000447,0.00000025,-0.00000104,-0.00000042,0.00000230,-0.00
 000321,0.00000088,0.00000046,-0.00000394,0.00000079,-0.00000371,-0.000
 00454,-0.00000311,0.00000238,0.00000619,0.00000096,-0.00000087,0.00000
 279,0.00000103,0.00000096,-0.00000077,0.00000017,0.00000334,-0.0000021
 4,0.00000144,0.00000403,-0.00000156,0.00000060,-0.00000313,-0.00000016
 ,-0.00000051,-0.00000217,0.00000085,0.00000173,-0.00000351,-0.00000060
 ,-0.00000565,-0.00000430,0.00000100,-0.00000175,0.00000032,0.00000325,
 -0.00000681,0.00000376,-0.00000321,-0.00000062,-0.00000221,-0.00000172
 ,-0.00000113,0.00000078,0.00000044,0.00000422,0.00000008,0.00001143,0.
 00000174,0.00000090,0.00000075,-0.00000176,0.00000622,-0.00001025,0.00
 000690,0.00000487,-0.00000286,0.00000685,0.00001333,-0.00000080,-0.000
 00425,-0.00001046,0.00001529,-0.00000048,0.00000238,0.00000172,0.00000
 007,0.00000458,0.00000377,-0.00001505,-0.00000834,-0.00002465,-0.00000
 907,-0.00000181,-0.00000951,0.00005859,0.00005878,-0.00003007,-0.00002
 787,-0.00005967,0.00005985,-0.00000113,-0.00000518,-0.00000548,-0.0000
 0014,-0.00000400,-0.00000088,0.00000072,-0.00000277,-0.00000016,0.0000
 0066,0.00000025,0.00000255,-0.00000226,-0.00000306,-0.00000441,0.00000
 116,0.00000478,-0.00000063,-0.00000205,0.00000044,0.00000272\\\@
 The archive entry for this job was punched.


 THE MOST INCOMPREHENSIBLE THING ABOUT THE WORLD
 IS THAT IT IS COMPREHENSIBLE. -- A. EINSTEIN
 Job cpu time:       1 days  5 hours 30 minutes 57.9 seconds.
 Elapsed time:       0 days  0 hours 55 minutes 29.5 seconds.
 File lengths (MBytes):  RWF=   2408 Int=      0 D2E=      0 Chk=     42 Scr=      1
 Normal termination of Gaussian 16 at Tue Apr  9 22:13:18 2024.
