 Entering Gaussian System, Link 0=g16
 Input=ph_fluorene_cy_idp_1_1_m062x.com
 Output=ph_fluorene_cy_idp_1_1_m062x.log
 Initial command:
 /arc/software/Gaussian/g16.c01/l1.exe "/tmp/Gau-161331.inp" -scrdir="/tmp/"
 Entering Link 1 = /arc/software/Gaussian/g16.c01/l1.exe PID=    161332.
  
 Copyright (c) 1988-2019, Gaussian, Inc.  All Rights Reserved.
  
 This is part of the Gaussian(R) 16 program.  It is based on
 the Gaussian(R) 09 system (copyright 2009, Gaussian, Inc.),
 the Gaussian(R) 03 system (copyright 2003, Gaussian, Inc.),
 the Gaussian(R) 98 system (copyright 1998, Gaussian, Inc.),
 the Gaussian(R) 94 system (copyright 1995, Gaussian, Inc.),
 the Gaussian 92(TM) system (copyright 1992, Gaussian, Inc.),
 the Gaussian 90(TM) system (copyright 1990, Gaussian, Inc.),
 the Gaussian 88(TM) system (copyright 1988, Gaussian, Inc.),
 the Gaussian 86(TM) system (copyright 1986, Carnegie Mellon
 University), and the Gaussian 82(TM) system (copyright 1983,
 Carnegie Mellon University). Gaussian is a federally registered
 trademark of Gaussian, Inc.
  
 This software contains proprietary and confidential information,
 including trade secrets, belonging to Gaussian, Inc.
  
 This software is provided under written license and may be
 used, copied, transmitted, or stored only in accord with that
 written license.
  
 The following legend is applicable only to US Government
 contracts under FAR:
  
                    RESTRICTED RIGHTS LEGEND
  
 Use, reproduction and disclosure by the US Government is
 subject to restrictions as set forth in subparagraphs (a)
 and (c) of the Commercial Computer Software - Restricted
 Rights clause in FAR 52.227-19.
  
 Gaussian, Inc.
 340 Quinnipiac St., Bldg. 40, Wallingford CT 06492
  
  
 ---------------------------------------------------------------
 Warning -- This program may not be used in any manner that
 competes with the business of Gaussian, Inc. or will provide
 assistance to any competitor of Gaussian, Inc.  The licensee
 of this program is prohibited from giving any competitor of
 Gaussian, Inc. access to this program.  By using this program,
 the user acknowledges that Gaussian, Inc. is engaged in the
 business of creating and licensing software in the field of
 computational chemistry and represents and warrants to the
 licensee that it is not a competitor of Gaussian, Inc. and that
 it will not use this program in any manner prohibited above.
 ---------------------------------------------------------------
  

 Cite this work as:
 Gaussian 16, Revision C.01,
 M. J. Frisch, G. W. Trucks, H. B. Schlegel, G. E. Scuseria, 
 M. A. Robb, J. R. Cheeseman, G. Scalmani, V. Barone, 
 G. A. Petersson, H. Nakatsuji, X. Li, M. Caricato, A. V. Marenich, 
 J. Bloino, B. G. Janesko, R. Gomperts, B. Mennucci, H. P. Hratchian, 
 J. V. Ortiz, A. F. Izmaylov, J. L. Sonnenberg, D. Williams-Young, 
 F. Ding, F. Lipparini, F. Egidi, J. Goings, B. Peng, A. Petrone, 
 T. Henderson, D. Ranasinghe, V. G. Zakrzewski, J. Gao, N. Rega, 
 G. Zheng, W. Liang, M. Hada, M. Ehara, K. Toyota, R. Fukuda, 
 J. Hasegawa, M. Ishida, T. Nakajima, Y. Honda, O. Kitao, H. Nakai, 
 T. Vreven, K. Throssell, J. A. Montgomery, Jr., J. E. Peralta, 
 F. Ogliaro, M. J. Bearpark, J. J. Heyd, E. N. Brothers, K. N. Kudin, 
 V. N. Staroverov, T. A. Keith, R. Kobayashi, J. Normand, 
 K. Raghavachari, A. P. Rendell, J. C. Burant, S. S. Iyengar, 
 J. Tomasi, M. Cossi, J. M. Millam, M. Klene, C. Adamo, R. Cammi, 
 J. W. Ochterski, R. L. Martin, K. Morokuma, O. Farkas, 
 J. B. Foresman, and D. J. Fox, Gaussian, Inc., Wallingford CT, 2019.
 
 ******************************************
 Gaussian 16:  ES64L-G16RevC.01  3-Jul-2019
                 3-Nov-2023 
 ******************************************
 %nprocshared=32
 Will use up to   32 processors via shared memory.
 %mem=8000MB
 %chk=ph_fluorene_cy_idp_1_1_m062x.chk
 -----------------------------------------
 # opt freq=noraman m062x def2tzvp pop=nbo
 -----------------------------------------
 1/18=20,19=15,26=3,38=1/1,3;
 2/9=110,12=2,17=6,18=5,40=1/2;
 3/5=44,7=101,11=2,25=1,30=1,71=1,74=-55/1,2,3;
 4//1;
 5/5=2,38=5/2;
 6/7=2,8=2,9=2,10=2,28=1,40=1/1,7;
 7//1,2,3,16;
 1/18=20,19=15,26=3/3(2);
 2/9=110/2;
 99//99;
 2/9=110/2;
 3/5=44,7=101,11=2,25=1,30=1,71=1,74=-55/1,2,3;
 4/5=5,16=3,69=1/1;
 5/5=2,38=5/2;
 7//1,2,3,16;
 1/18=20,19=15,26=3/3(-5);
 2/9=110/2;
 6/7=2,8=2,9=2,10=2,19=2,28=1,40=1/1,7;
 99/9=1/99;
 ------------
 Structure697
 ------------
 Symbolic Z-matrix:
 Charge =  0 Multiplicity = 1
 C                    -0.0794   -5.3913   -0.3513 
 C                    -0.0239   -4.8432   -1.6399 
 C                     0.655    -3.6507   -1.8784 
 C                     1.2874   -2.9956   -0.8254 
 C                     1.2447   -3.524     0.4618 
 C                     0.5633   -4.7161    0.6952 
 H                     0.6875   -3.2353   -2.8752 
 H                     1.7401   -3.0144    1.2755 
 H                    -0.5225   -5.3358   -2.4617 
 H                     0.5483   -5.124     1.6952 
 H                     1.8152   -2.0706   -1.0085 
 C                    -1.4449   -8.9132   -0.7906 
 C                    -0.7671   -7.718    -1.0265 
 C                    -0.8086   -6.669    -0.0981 
 C                    -1.5534   -6.8526    1.0762 
 H                    -1.3928   -9.7073   -1.5196 
 H                    -0.1921   -7.6153   -1.9346 
 H                    -1.6004   -6.0441    1.7857 
 C                    -2.1779   -9.0723    0.3842 
 C                    -2.2402   -8.0467    1.3272 
 C                    -3.515    -9.8777    2.1071 
 C                    -2.9695   -10.212    0.8686 
 C                    -3.2167   -11.4622   0.2975 
 C                    -4.0169   -12.3855   0.9721 
 C                    -4.5667   -12.0583   2.2125 
 C                    -4.317    -10.8074   2.7797 
 H                    -2.7951   -11.723   -0.6615 
 H                    -4.2101   -13.3535   0.5331 
 H                    -5.1861   -12.7734   2.7343 
 H                    -4.749    -10.5676   3.7399 
 C                    -4.1104   -6.2011    3.326 
 C                    -4.3708   -7.5733    2.667 
 C                    -3.1053   -8.4673    2.5187 
 C                    -2.2889   -8.5209    3.8427 
 C                    -2.0378   -7.1434    4.4941 
 C                    -3.3384   -6.333     4.6528 
 H                    -5.061    -5.6962    3.5041 
 H                    -3.5659   -5.5535    2.64 
 H                    -4.847    -7.4355    1.6946 
 H                    -5.1071   -8.0968    3.2783 
 H                    -2.8256   -9.1343    4.5677 
 H                    -1.3397   -9.0334    3.6759 
 H                    -1.5708   -7.2815    5.4704 
 H                    -1.3152   -6.5779    3.9071 
 H                    -3.1129   -5.3426    5.0512 
 H                    -3.9765   -6.8174    5.3941 
 

 GradGradGradGradGradGradGradGradGradGradGradGradGradGradGradGradGradGrad
 Berny optimization.
 Initialization pass.
                           ----------------------------
                           !    Initial Parameters    !
                           ! (Angstroms and Degrees)  !
 --------------------------                            --------------------------
 ! Name  Definition              Value          Derivative Info.                !
 --------------------------------------------------------------------------------
 ! R1    R(1,2)                  1.4014         estimate D2E/DX2                !
 ! R2    R(1,6)                  1.4015         estimate D2E/DX2                !
 ! R3    R(1,14)                 1.4928         estimate D2E/DX2                !
 ! R4    R(2,3)                  1.3928         estimate D2E/DX2                !
 ! R5    R(2,9)                  1.0801         estimate D2E/DX2                !
 ! R6    R(3,4)                  1.3921         estimate D2E/DX2                !
 ! R7    R(3,7)                  1.0804         estimate D2E/DX2                !
 ! R8    R(4,5)                  1.3921         estimate D2E/DX2                !
 ! R9    R(4,11)                 1.0806         estimate D2E/DX2                !
 ! R10   R(5,6)                  1.3928         estimate D2E/DX2                !
 ! R11   R(5,8)                  1.0804         estimate D2E/DX2                !
 ! R12   R(6,10)                 1.0801         estimate D2E/DX2                !
 ! R13   R(12,13)                1.3941         estimate D2E/DX2                !
 ! R14   R(12,16)                1.0792         estimate D2E/DX2                !
 ! R15   R(12,19)                1.3938         estimate D2E/DX2                !
 ! R16   R(13,14)                1.4014         estimate D2E/DX2                !
 ! R17   R(13,17)                1.0797         estimate D2E/DX2                !
 ! R18   R(14,15)                1.4026         estimate D2E/DX2                !
 ! R19   R(15,18)                1.0767         estimate D2E/DX2                !
 ! R20   R(15,20)                1.4002         estimate D2E/DX2                !
 ! R21   R(19,20)                1.3946         estimate D2E/DX2                !
 ! R22   R(19,22)                1.4698         estimate D2E/DX2                !
 ! R23   R(20,33)                1.5313         estimate D2E/DX2                !
 ! R24   R(21,22)                1.394          estimate D2E/DX2                !
 ! R25   R(21,26)                1.4            estimate D2E/DX2                !
 ! R26   R(21,33)                1.5253         estimate D2E/DX2                !
 ! R27   R(22,23)                1.3965         estimate D2E/DX2                !
 ! R28   R(23,24)                1.3957         estimate D2E/DX2                !
 ! R29   R(23,27)                1.0796         estimate D2E/DX2                !
 ! R30   R(24,25)                1.3957         estimate D2E/DX2                !
 ! R31   R(24,28)                1.0803         estimate D2E/DX2                !
 ! R32   R(25,26)                1.396          estimate D2E/DX2                !
 ! R33   R(25,29)                1.0804         estimate D2E/DX2                !
 ! R34   R(26,30)                1.0799         estimate D2E/DX2                !
 ! R35   R(31,32)                1.5444         estimate D2E/DX2                !
 ! R36   R(31,36)                1.5407         estimate D2E/DX2                !
 ! R37   R(31,37)                1.091          estimate D2E/DX2                !
 ! R38   R(31,38)                1.0892         estimate D2E/DX2                !
 ! R39   R(32,33)                1.5565         estimate D2E/DX2                !
 ! R40   R(32,39)                1.0915         estimate D2E/DX2                !
 ! R41   R(32,40)                1.0908         estimate D2E/DX2                !
 ! R42   R(33,34)                1.5564         estimate D2E/DX2                !
 ! R43   R(34,35)                1.5443         estimate D2E/DX2                !
 ! R44   R(34,41)                1.0908         estimate D2E/DX2                !
 ! R45   R(34,42)                1.0915         estimate D2E/DX2                !
 ! R46   R(35,36)                1.5406         estimate D2E/DX2                !
 ! R47   R(35,43)                1.091          estimate D2E/DX2                !
 ! R48   R(35,44)                1.0893         estimate D2E/DX2                !
 ! R49   R(36,45)                1.0911         estimate D2E/DX2                !
 ! R50   R(36,46)                1.0915         estimate D2E/DX2                !
 ! A1    A(2,1,6)              118.6863         estimate D2E/DX2                !
 ! A2    A(2,1,14)             120.668          estimate D2E/DX2                !
 ! A3    A(6,1,14)             120.6457         estimate D2E/DX2                !
 ! A4    A(1,2,3)              120.7718         estimate D2E/DX2                !
 ! A5    A(1,2,9)              120.1955         estimate D2E/DX2                !
 ! A6    A(3,2,9)              119.0264         estimate D2E/DX2                !
 ! A7    A(2,3,4)              119.6583         estimate D2E/DX2                !
 ! A8    A(2,3,7)              120.1231         estimate D2E/DX2                !
 ! A9    A(4,3,7)              120.2184         estimate D2E/DX2                !
 ! A10   A(3,4,5)              120.4555         estimate D2E/DX2                !
 ! A11   A(3,4,11)             119.7712         estimate D2E/DX2                !
 ! A12   A(5,4,11)             119.7733         estimate D2E/DX2                !
 ! A13   A(4,5,6)              119.6588         estimate D2E/DX2                !
 ! A14   A(4,5,8)              120.2191         estimate D2E/DX2                !
 ! A15   A(6,5,8)              120.1217         estimate D2E/DX2                !
 ! A16   A(1,6,5)              120.7692         estimate D2E/DX2                !
 ! A17   A(1,6,10)             120.2005         estimate D2E/DX2                !
 ! A18   A(5,6,10)             119.0241         estimate D2E/DX2                !
 ! A19   A(13,12,16)           119.5408         estimate D2E/DX2                !
 ! A20   A(13,12,19)           119.7463         estimate D2E/DX2                !
 ! A21   A(16,12,19)           120.7125         estimate D2E/DX2                !
 ! A22   A(12,13,14)           121.0122         estimate D2E/DX2                !
 ! A23   A(12,13,17)           118.8666         estimate D2E/DX2                !
 ! A24   A(14,13,17)           120.1146         estimate D2E/DX2                !
 ! A25   A(1,14,13)            120.9201         estimate D2E/DX2                !
 ! A26   A(1,14,15)            120.8923         estimate D2E/DX2                !
 ! A27   A(13,14,15)           118.1876         estimate D2E/DX2                !
 ! A28   A(14,15,18)           118.4618         estimate D2E/DX2                !
 ! A29   A(14,15,20)           121.4772         estimate D2E/DX2                !
 ! A30   A(18,15,20)           120.0557         estimate D2E/DX2                !
 ! A31   A(12,19,20)           120.628          estimate D2E/DX2                !
 ! A32   A(12,19,22)           130.5069         estimate D2E/DX2                !
 ! A33   A(20,19,22)           108.865          estimate D2E/DX2                !
 ! A34   A(15,20,19)           118.9487         estimate D2E/DX2                !
 ! A35   A(15,20,33)           130.6029         estimate D2E/DX2                !
 ! A36   A(19,20,33)           110.4484         estimate D2E/DX2                !
 ! A37   A(22,21,26)           119.4567         estimate D2E/DX2                !
 ! A38   A(22,21,33)           110.8788         estimate D2E/DX2                !
 ! A39   A(26,21,33)           129.6645         estimate D2E/DX2                !
 ! A40   A(19,22,21)           108.5189         estimate D2E/DX2                !
 ! A41   A(19,22,23)           130.9004         estimate D2E/DX2                !
 ! A42   A(21,22,23)           120.5806         estimate D2E/DX2                !
 ! A43   A(22,23,24)           119.7396         estimate D2E/DX2                !
 ! A44   A(22,23,27)           120.6917         estimate D2E/DX2                !
 ! A45   A(24,23,27)           119.5687         estimate D2E/DX2                !
 ! A46   A(23,24,25)           120.0226         estimate D2E/DX2                !
 ! A47   A(23,24,28)           119.9266         estimate D2E/DX2                !
 ! A48   A(25,24,28)           120.0508         estimate D2E/DX2                !
 ! A49   A(24,25,26)           120.0468         estimate D2E/DX2                !
 ! A50   A(24,25,29)           119.9933         estimate D2E/DX2                !
 ! A51   A(26,25,29)           119.96           estimate D2E/DX2                !
 ! A52   A(21,26,25)           120.1537         estimate D2E/DX2                !
 ! A53   A(21,26,30)           120.5907         estimate D2E/DX2                !
 ! A54   A(25,26,30)           119.2555         estimate D2E/DX2                !
 ! A55   A(32,31,36)           112.0795         estimate D2E/DX2                !
 ! A56   A(32,31,37)           109.5082         estimate D2E/DX2                !
 ! A57   A(32,31,38)           110.1091         estimate D2E/DX2                !
 ! A58   A(36,31,37)           109.6105         estimate D2E/DX2                !
 ! A59   A(36,31,38)           110.046          estimate D2E/DX2                !
 ! A60   A(37,31,38)           105.2613         estimate D2E/DX2                !
 ! A61   A(31,32,33)           114.4503         estimate D2E/DX2                !
 ! A62   A(31,32,39)           109.9714         estimate D2E/DX2                !
 ! A63   A(31,32,40)           107.5236         estimate D2E/DX2                !
 ! A64   A(33,32,39)           110.0202         estimate D2E/DX2                !
 ! A65   A(33,32,40)           109.0594         estimate D2E/DX2                !
 ! A66   A(39,32,40)           105.3885         estimate D2E/DX2                !
 ! A67   A(20,33,21)           101.2887         estimate D2E/DX2                !
 ! A68   A(20,33,32)           112.0669         estimate D2E/DX2                !
 ! A69   A(20,33,34)           112.026          estimate D2E/DX2                !
 ! A70   A(21,33,32)           109.781          estimate D2E/DX2                !
 ! A71   A(21,33,34)           109.7922         estimate D2E/DX2                !
 ! A72   A(32,33,34)           111.4202         estimate D2E/DX2                !
 ! A73   A(33,34,35)           114.4184         estimate D2E/DX2                !
 ! A74   A(33,34,41)           109.0669         estimate D2E/DX2                !
 ! A75   A(33,34,42)           110.0182         estimate D2E/DX2                !
 ! A76   A(35,34,41)           107.5318         estimate D2E/DX2                !
 ! A77   A(35,34,42)           109.9908         estimate D2E/DX2                !
 ! A78   A(41,34,42)           105.3901         estimate D2E/DX2                !
 ! A79   A(34,35,36)           112.0485         estimate D2E/DX2                !
 ! A80   A(34,35,43)           109.5207         estimate D2E/DX2                !
 ! A81   A(34,35,44)           110.0984         estimate D2E/DX2                !
 ! A82   A(36,35,43)           109.6187         estimate D2E/DX2                !
 ! A83   A(36,35,44)           110.0265         estimate D2E/DX2                !
 ! A84   A(43,35,44)           105.3069         estimate D2E/DX2                !
 ! A85   A(31,36,35)           112.2922         estimate D2E/DX2                !
 ! A86   A(31,36,45)           109.8948         estimate D2E/DX2                !
 ! A87   A(31,36,46)           109.2647         estimate D2E/DX2                !
 ! A88   A(35,36,45)           109.9146         estimate D2E/DX2                !
 ! A89   A(35,36,46)           109.2718         estimate D2E/DX2                !
 ! A90   A(45,36,46)           106.0025         estimate D2E/DX2                !
 ! D1    D(6,1,2,3)             -0.0472         estimate D2E/DX2                !
 ! D2    D(6,1,2,9)           -179.126          estimate D2E/DX2                !
 ! D3    D(14,1,2,3)           179.9519         estimate D2E/DX2                !
 ! D4    D(14,1,2,9)             0.8731         estimate D2E/DX2                !
 ! D5    D(2,1,6,5)             -0.0183         estimate D2E/DX2                !
 ! D6    D(2,1,6,10)          -179.1072         estimate D2E/DX2                !
 ! D7    D(14,1,6,5)           179.9826         estimate D2E/DX2                !
 ! D8    D(14,1,6,10)            0.8937         estimate D2E/DX2                !
 ! D9    D(2,1,14,13)           38.2297         estimate D2E/DX2                !
 ! D10   D(2,1,14,15)         -141.812          estimate D2E/DX2                !
 ! D11   D(6,1,14,13)         -141.7712         estimate D2E/DX2                !
 ! D12   D(6,1,14,15)           38.1871         estimate D2E/DX2                !
 ! D13   D(1,2,3,4)              0.0719         estimate D2E/DX2                !
 ! D14   D(1,2,3,7)           -179.7342         estimate D2E/DX2                !
 ! D15   D(9,2,3,4)            179.1613         estimate D2E/DX2                !
 ! D16   D(9,2,3,7)             -0.6448         estimate D2E/DX2                !
 ! D17   D(2,3,4,5)             -0.031          estimate D2E/DX2                !
 ! D18   D(2,3,4,11)           179.9604         estimate D2E/DX2                !
 ! D19   D(7,3,4,5)            179.7749         estimate D2E/DX2                !
 ! D20   D(7,3,4,11)            -0.2337         estimate D2E/DX2                !
 ! D21   D(3,4,5,6)             -0.0336         estimate D2E/DX2                !
 ! D22   D(3,4,5,8)            179.7611         estimate D2E/DX2                !
 ! D23   D(11,4,5,6)           179.975          estimate D2E/DX2                !
 ! D24   D(11,4,5,8)            -0.2303         estimate D2E/DX2                !
 ! D25   D(4,5,6,1)              0.0585         estimate D2E/DX2                !
 ! D26   D(4,5,6,10)           179.1579         estimate D2E/DX2                !
 ! D27   D(8,5,6,1)           -179.7365         estimate D2E/DX2                !
 ! D28   D(8,5,6,10)            -0.637          estimate D2E/DX2                !
 ! D29   D(16,12,13,14)       -179.7031         estimate D2E/DX2                !
 ! D30   D(16,12,13,17)         -0.6436         estimate D2E/DX2                !
 ! D31   D(19,12,13,14)          0.0739         estimate D2E/DX2                !
 ! D32   D(19,12,13,17)        179.1334         estimate D2E/DX2                !
 ! D33   D(13,12,19,20)          0.0002         estimate D2E/DX2                !
 ! D34   D(13,12,19,22)       -179.9759         estimate D2E/DX2                !
 ! D35   D(16,12,19,20)        179.7746         estimate D2E/DX2                !
 ! D36   D(16,12,19,22)         -0.2015         estimate D2E/DX2                !
 ! D37   D(12,13,14,1)         179.8534         estimate D2E/DX2                !
 ! D38   D(12,13,14,15)         -0.106          estimate D2E/DX2                !
 ! D39   D(17,13,14,1)           0.8055         estimate D2E/DX2                !
 ! D40   D(17,13,14,15)       -179.1539         estimate D2E/DX2                !
 ! D41   D(1,14,15,18)           0.9429         estimate D2E/DX2                !
 ! D42   D(1,14,15,20)        -179.8925         estimate D2E/DX2                !
 ! D43   D(13,14,15,18)       -179.0977         estimate D2E/DX2                !
 ! D44   D(13,14,15,20)          0.0669         estimate D2E/DX2                !
 ! D45   D(14,15,20,19)          0.0042         estimate D2E/DX2                !
 ! D46   D(14,15,20,33)       -179.9065         estimate D2E/DX2                !
 ! D47   D(18,15,20,19)        179.1557         estimate D2E/DX2                !
 ! D48   D(18,15,20,33)         -0.755          estimate D2E/DX2                !
 ! D49   D(12,19,20,15)         -0.0386         estimate D2E/DX2                !
 ! D50   D(12,19,20,33)        179.889          estimate D2E/DX2                !
 ! D51   D(22,19,20,15)        179.9422         estimate D2E/DX2                !
 ! D52   D(22,19,20,33)         -0.1302         estimate D2E/DX2                !
 ! D53   D(12,19,22,21)       -179.948          estimate D2E/DX2                !
 ! D54   D(12,19,22,23)          0.0574         estimate D2E/DX2                !
 ! D55   D(20,19,22,21)          0.0738         estimate D2E/DX2                !
 ! D56   D(20,19,22,23)       -179.9208         estimate D2E/DX2                !
 ! D57   D(15,20,33,21)       -179.9539         estimate D2E/DX2                !
 ! D58   D(15,20,33,32)         63.0904         estimate D2E/DX2                !
 ! D59   D(15,20,33,34)        -63.0027         estimate D2E/DX2                !
 ! D60   D(19,20,33,21)          0.1295         estimate D2E/DX2                !
 ! D61   D(19,20,33,32)       -116.8262         estimate D2E/DX2                !
 ! D62   D(19,20,33,34)        117.0807         estimate D2E/DX2                !
 ! D63   D(26,21,22,19)       -179.9987         estimate D2E/DX2                !
 ! D64   D(26,21,22,23)         -0.0035         estimate D2E/DX2                !
 ! D65   D(33,21,22,19)          0.0125         estimate D2E/DX2                !
 ! D66   D(33,21,22,23)       -179.9922         estimate D2E/DX2                !
 ! D67   D(22,21,26,25)          0.0041         estimate D2E/DX2                !
 ! D68   D(22,21,26,30)       -179.9871         estimate D2E/DX2                !
 ! D69   D(33,21,26,25)        179.9904         estimate D2E/DX2                !
 ! D70   D(33,21,26,30)         -0.0008         estimate D2E/DX2                !
 ! D71   D(22,21,33,20)         -0.0835         estimate D2E/DX2                !
 ! D72   D(22,21,33,32)        118.531          estimate D2E/DX2                !
 ! D73   D(22,21,33,34)       -118.6561         estimate D2E/DX2                !
 ! D74   D(26,21,33,20)        179.9292         estimate D2E/DX2                !
 ! D75   D(26,21,33,32)        -61.4562         estimate D2E/DX2                !
 ! D76   D(26,21,33,34)         61.3567         estimate D2E/DX2                !
 ! D77   D(19,22,23,24)        179.997          estimate D2E/DX2                !
 ! D78   D(19,22,23,27)         -0.0014         estimate D2E/DX2                !
 ! D79   D(21,22,23,24)          0.003          estimate D2E/DX2                !
 ! D80   D(21,22,23,27)       -179.9955         estimate D2E/DX2                !
 ! D81   D(22,23,24,25)         -0.003          estimate D2E/DX2                !
 ! D82   D(22,23,24,28)        179.9999         estimate D2E/DX2                !
 ! D83   D(27,23,24,25)        179.9954         estimate D2E/DX2                !
 ! D84   D(27,23,24,28)         -0.0017         estimate D2E/DX2                !
 ! D85   D(23,24,25,26)          0.0036         estimate D2E/DX2                !
 ! D86   D(23,24,25,29)        179.9988         estimate D2E/DX2                !
 ! D87   D(28,24,25,26)       -179.9993         estimate D2E/DX2                !
 ! D88   D(28,24,25,29)         -0.0041         estimate D2E/DX2                !
 ! D89   D(24,25,26,21)         -0.0041         estimate D2E/DX2                !
 ! D90   D(24,25,26,30)        179.9872         estimate D2E/DX2                !
 ! D91   D(29,25,26,21)       -179.9993         estimate D2E/DX2                !
 ! D92   D(29,25,26,30)         -0.008          estimate D2E/DX2                !
 ! D93   D(36,31,32,33)        -51.0679         estimate D2E/DX2                !
 ! D94   D(36,31,32,39)       -175.4961         estimate D2E/DX2                !
 ! D95   D(36,31,32,40)         70.247          estimate D2E/DX2                !
 ! D96   D(37,31,32,33)       -172.9353         estimate D2E/DX2                !
 ! D97   D(37,31,32,39)         62.6365         estimate D2E/DX2                !
 ! D98   D(37,31,32,40)        -51.6204         estimate D2E/DX2                !
 ! D99   D(38,31,32,33)         71.7815         estimate D2E/DX2                !
 ! D100  D(38,31,32,39)        -52.6467         estimate D2E/DX2                !
 ! D101  D(38,31,32,40)       -166.9036         estimate D2E/DX2                !
 ! D102  D(32,31,36,35)         53.3685         estimate D2E/DX2                !
 ! D103  D(32,31,36,45)        176.0428         estimate D2E/DX2                !
 ! D104  D(32,31,36,46)        -68.0413         estimate D2E/DX2                !
 ! D105  D(37,31,36,35)        175.1773         estimate D2E/DX2                !
 ! D106  D(37,31,36,45)        -62.1483         estimate D2E/DX2                !
 ! D107  D(37,31,36,46)         53.7675         estimate D2E/DX2                !
 ! D108  D(38,31,36,35)        -69.5166         estimate D2E/DX2                !
 ! D109  D(38,31,36,45)         53.1578         estimate D2E/DX2                !
 ! D110  D(38,31,36,46)        169.0736         estimate D2E/DX2                !
 ! D111  D(31,32,33,20)        -78.8749         estimate D2E/DX2                !
 ! D112  D(31,32,33,21)        169.393          estimate D2E/DX2                !
 ! D113  D(31,32,33,34)         47.5473         estimate D2E/DX2                !
 ! D114  D(39,32,33,20)         45.5274         estimate D2E/DX2                !
 ! D115  D(39,32,33,21)        -66.2047         estimate D2E/DX2                !
 ! D116  D(39,32,33,34)        171.9496         estimate D2E/DX2                !
 ! D117  D(40,32,33,20)        160.6588         estimate D2E/DX2                !
 ! D118  D(40,32,33,21)         48.9267         estimate D2E/DX2                !
 ! D119  D(40,32,33,34)        -72.919          estimate D2E/DX2                !
 ! D120  D(20,33,34,35)         78.8183         estimate D2E/DX2                !
 ! D121  D(20,33,34,41)       -160.7206         estimate D2E/DX2                !
 ! D122  D(20,33,34,42)        -45.5842         estimate D2E/DX2                !
 ! D123  D(21,33,34,35)       -169.4655         estimate D2E/DX2                !
 ! D124  D(21,33,34,41)        -49.0044         estimate D2E/DX2                !
 ! D125  D(21,33,34,42)         66.132          estimate D2E/DX2                !
 ! D126  D(32,33,34,35)        -47.6263         estimate D2E/DX2                !
 ! D127  D(32,33,34,41)         72.8347         estimate D2E/DX2                !
 ! D128  D(32,33,34,42)       -172.0288         estimate D2E/DX2                !
 ! D129  D(33,34,35,36)         51.2288         estimate D2E/DX2                !
 ! D130  D(33,34,35,43)        173.0945         estimate D2E/DX2                !
 ! D131  D(33,34,35,44)        -71.5662         estimate D2E/DX2                !
 ! D132  D(41,34,35,36)        -70.081          estimate D2E/DX2                !
 ! D133  D(41,34,35,43)         51.7847         estimate D2E/DX2                !
 ! D134  D(41,34,35,44)        167.124          estimate D2E/DX2                !
 ! D135  D(42,34,35,36)        175.6459         estimate D2E/DX2                !
 ! D136  D(42,34,35,43)        -62.4884         estimate D2E/DX2                !
 ! D137  D(42,34,35,44)         52.8509         estimate D2E/DX2                !
 ! D138  D(34,35,36,31)        -53.4472         estimate D2E/DX2                !
 ! D139  D(34,35,36,45)       -176.1104         estimate D2E/DX2                !
 ! D140  D(34,35,36,46)         67.9586         estimate D2E/DX2                !
 ! D141  D(43,35,36,31)       -175.2568         estimate D2E/DX2                !
 ! D142  D(43,35,36,45)         62.0801         estimate D2E/DX2                !
 ! D143  D(43,35,36,46)        -53.851          estimate D2E/DX2                !
 ! D144  D(44,35,36,31)         69.3885         estimate D2E/DX2                !
 ! D145  D(44,35,36,45)        -53.2746         estimate D2E/DX2                !
 ! D146  D(44,35,36,46)       -169.2057         estimate D2E/DX2                !
 --------------------------------------------------------------------------------
 Trust Radius=3.00D-01 FncErr=1.00D-07 GrdErr=1.00D-06 EigMax=2.50D+02 EigMin=1.00D-04
 Number of steps in this run=    276 maximum allowed number of steps=    276.
 GradGradGradGradGradGradGradGradGradGradGradGradGradGradGradGradGradGrad

                          Input orientation:                          
 ---------------------------------------------------------------------
 Center     Atomic      Atomic             Coordinates (Angstroms)
 Number     Number       Type             X           Y           Z
 ---------------------------------------------------------------------
      1          6           0       -0.079400   -5.391300   -0.351300
      2          6           0       -0.023900   -4.843200   -1.639900
      3          6           0        0.655000   -3.650700   -1.878400
      4          6           0        1.287400   -2.995600   -0.825400
      5          6           0        1.244700   -3.524000    0.461800
      6          6           0        0.563300   -4.716100    0.695200
      7          1           0        0.687500   -3.235300   -2.875200
      8          1           0        1.740100   -3.014400    1.275500
      9          1           0       -0.522500   -5.335800   -2.461700
     10          1           0        0.548300   -5.124000    1.695200
     11          1           0        1.815200   -2.070600   -1.008500
     12          6           0       -1.444900   -8.913200   -0.790600
     13          6           0       -0.767100   -7.718000   -1.026500
     14          6           0       -0.808600   -6.669000   -0.098100
     15          6           0       -1.553400   -6.852600    1.076200
     16          1           0       -1.392800   -9.707300   -1.519600
     17          1           0       -0.192100   -7.615300   -1.934600
     18          1           0       -1.600400   -6.044100    1.785700
     19          6           0       -2.177900   -9.072300    0.384200
     20          6           0       -2.240200   -8.046700    1.327200
     21          6           0       -3.515000   -9.877700    2.107100
     22          6           0       -2.969500  -10.212000    0.868600
     23          6           0       -3.216700  -11.462200    0.297500
     24          6           0       -4.016900  -12.385500    0.972100
     25          6           0       -4.566700  -12.058300    2.212500
     26          6           0       -4.317000  -10.807400    2.779700
     27          1           0       -2.795100  -11.723000   -0.661500
     28          1           0       -4.210100  -13.353500    0.533100
     29          1           0       -5.186100  -12.773400    2.734300
     30          1           0       -4.749000  -10.567600    3.739900
     31          6           0       -4.110400   -6.201100    3.326000
     32          6           0       -4.370800   -7.573300    2.667000
     33          6           0       -3.105300   -8.467300    2.518700
     34          6           0       -2.288900   -8.520900    3.842700
     35          6           0       -2.037800   -7.143400    4.494100
     36          6           0       -3.338400   -6.333000    4.652800
     37          1           0       -5.061000   -5.696200    3.504100
     38          1           0       -3.565900   -5.553500    2.640000
     39          1           0       -4.847000   -7.435500    1.694600
     40          1           0       -5.107100   -8.096800    3.278300
     41          1           0       -2.825600   -9.134300    4.567700
     42          1           0       -1.339700   -9.033400    3.675900
     43          1           0       -1.570800   -7.281500    5.470400
     44          1           0       -1.315200   -6.577900    3.907100
     45          1           0       -3.112900   -5.342600    5.051200
     46          1           0       -3.976500   -6.817400    5.394100
 ---------------------------------------------------------------------
                    Distance matrix (angstroms):
                    1          2          3          4          5
     1  C    0.000000
     2  C    1.401422   0.000000
     3  C    2.429211   1.392783   0.000000
     4  C    2.798623   2.407601   1.392083   0.000000
     5  C    2.429235   2.786894   2.416679   1.392090   0.000000
     6  C    1.401471   2.411151   2.786916   2.407627   1.392797
     7  H    3.406838   2.148813   1.080381   2.149190   3.395495
     8  H    3.406863   3.867268   3.395498   2.149203   1.080380
     9  H    2.157129   1.080098   2.136892   3.380792   3.866842
    10  H    2.157225   3.395461   3.866861   3.380796   2.136878
    11  H    3.879236   3.386483   2.144646   1.080613   2.144673
    12  C    3.802809   4.393797   5.769471   6.518026   6.151905
    13  C    2.518404   3.032009   4.392156   5.153879   4.883852
    14  C    1.492769   2.515243   3.797595   4.291392   3.797440
    15  C    2.519093   3.708673   4.884553   5.153899   4.391632
    16  H    4.660236   5.054486   6.403485   7.260324   7.008249
    17  H    2.732346   2.792790   4.054478   4.976030   4.954378
    18  H    2.703028   3.957556   4.923497   4.944753   4.024700
    19  C    4.300514   5.159650   6.522149   7.099135   6.519497
    20  C    3.812816   4.896742   6.163024   6.526198   5.774795
    21  C    6.162375   7.181503   8.488147   8.889651   8.107482
    22  C    5.751520   6.617639   7.983337   8.547939   7.915448
    23  C    6.864359   7.599911   8.985774   9.655627   9.107475
    24  C    8.134748   8.924846  10.307703  10.933290  10.318480
    25  C    8.435510   9.356051  10.709311  11.208562  10.472421
    26  C    7.556094   8.575270   9.881145  10.267924   9.452676
    27  H    6.896497   7.481207   8.862622   9.636451   9.208984
    28  H    9.013405   9.729923  11.118851  11.804835  11.241841
    29  H    9.491823  10.424491  11.773662  12.254919  11.492208
    30  H    8.083141   9.167201  10.421709  10.705852   9.812374
    31  C    5.516092   6.572940   7.503290   7.526327   6.636837
    32  C    5.682198   6.700625   7.829822   8.072634   7.265919
    33  C    5.182157   6.318471   7.528212   7.772922   6.898518
    34  C    5.680310   6.979585   8.069472   8.069078   6.991840
    35  C    5.512085   6.853661   7.749767   7.520524   6.335164
    36  C    6.045568   7.266601   8.111631   7.908662   6.816140
    37  H    6.306617   7.249877   8.113448   8.144937   7.330477
    38  H    4.596723   5.600699   6.469357   6.488942   5.657322
    39  H    5.576242   6.411022   7.573839   7.980851   7.343598
    40  H    6.765463   7.785469   8.919706   9.151624   8.317965
    41  H    6.763743   8.049681   9.150773   9.148002   8.056130
    42  H    5.574189   6.895421   7.987649   7.976113   6.882082
    43  H    6.299946   7.674280   8.493630   8.134823   6.865269
    44  H    4.590119   5.953642   6.776592   6.480969   5.267778
    45  H    6.196087   7.386619   8.067153   7.707495   6.584723
    46  H    7.087367   8.306484   9.185208   8.999832   7.901582
                    6          7          8          9         10
     6  C    0.000000
     7  H    3.867292   0.000000
     8  H    2.148811   4.287782   0.000000
     9  H    3.395439   2.459102   4.947213   0.000000
    10  H    1.080096   4.947234   2.459054   4.297824   0.000000
    11  H    3.386520   2.472408   2.472459   4.270616   4.270630
    12  C    4.884272   6.413364   7.014901   4.054773   4.950766
    13  C    3.707508   5.062426   5.805955   2.791864   3.983311
    14  C    2.515006   4.662713   4.662483   2.728714   2.728393
    15  C    3.031536   5.806897   5.061486   3.984994   2.790764
    16  H    5.800323   6.931961   7.900795   4.555764   5.925323
    17  H    3.986457   4.565394   5.933500   2.362862   4.464327
    18  H    2.763037   5.903205   4.538538   4.438915   2.339164
    19  C    5.156295   7.273567   7.269339   4.980053   4.973928
    20  C    4.399083   7.027173   6.416347   4.965404   4.056271
    21  C    6.728158   9.306224   8.684038   7.103369   6.267195
    22  C    6.535722   8.721470   8.611118   6.391872   6.240667
    23  C    7.743154   9.643168   9.843357   7.239107   7.503437
    24  C    8.937259  10.984501  11.002391   8.584875   8.607747
    25  C    9.084437  11.460220  11.065524   9.132125   8.632227
    26  C    8.078763  10.693905   9.984084   8.474014   7.559651
    27  H    7.887720   9.437692  10.007983   7.014396   7.763965
    28  H    9.869970  11.746530  11.952114   9.319374   9.576926
    29  H   10.106118  12.527610  12.055639  10.201249   9.616465
    30  H    8.469403  11.272875  10.258290   9.148490   7.866064
    31  C    5.565052   8.382762   6.970506   6.864346   5.052043
    32  C    6.032987   8.667215   7.750028   6.791125   5.580413
    33  C    5.554753   8.417441   7.399836   6.425071   5.020418
    34  C    5.702482   9.051337   7.290055   7.280830   4.919389
    35  C    5.204724   8.775368   6.456048   7.344842   4.312741
    36  C    5.787938   9.081542   6.943373   7.716204   5.031453
    37  H    6.362646   8.932903   7.642884   7.504575   5.921468
    38  H    4.640450   7.340497   6.038421   5.944495   4.243084
    39  H    6.137205   8.315975   7.944285   6.354909   5.869608
    40  H    7.089074   9.750750   8.759346   7.847884   6.582347
    41  H    6.782433  10.126047   8.314889   8.315367   5.976367
    42  H    5.580776   8.980224   7.174639   7.211809   4.771910
    43  H    5.825650   9.545716   6.838669   8.234251   4.837099
    44  H    4.160693   7.821980   5.381330   6.537033   3.237122
    45  H    5.734255   9.039445   6.574803   7.946942   4.971409
    46  H    6.863301  10.147200   8.006572   8.708550   6.084676
                   11         12         13         14         15
    11  H    0.000000
    12  C    7.582672   0.000000
    13  C    6.209809   1.394118   0.000000
    14  C    5.372005   2.433283   1.401446   0.000000
    15  C    6.209748   2.782586   2.405937   1.402646   0.000000
    16  H    8.298896   1.079236   2.142887   3.404882   3.861772
    17  H    5.969138   2.136068   1.079730   2.155989   3.391130
    18  H    5.938230   3.859176   3.377099   2.136855   1.076695
    19  C    8.179747   1.393828   2.411340   2.807748   2.407474
    20  C    7.590490   2.422478   2.796063   2.445203   1.400204
    21  C    9.953331   3.689477   4.694114   4.741652   3.749915
    22  C    9.628045   2.600814   3.829100   4.261085   3.651576
    23  C   10.734421   3.289474   4.666106   5.378681   4.961991
    24  C   12.013881   4.666815   6.028363   6.642055   6.057446
    25  C   12.282412   5.353120   6.615609   6.964678   6.121313
    26  C   11.326341   4.958225   6.052548   6.141413   5.116624
    27  H   10.702528   3.120045   4.504002   5.459535   5.318103
    28  H   12.883501   5.395811   6.785681   7.526696   7.043771
    29  H   13.325790   6.428269   7.695989   8.027994   7.141546
    30  H   11.740317   5.846328   6.833324   6.742112   5.577489
    31  C    8.423874   5.604175   5.694111   4.779673   3.467607
    32  C    9.058455   4.723475   5.162319   4.599218   3.314784
    33  C    8.807396   3.729239   4.312432   3.918719   2.663917
    34  C    9.054510   4.725855   5.164265   4.598992   3.313262
    35  C    8.417691   5.604621   5.694020   4.777477   3.464282
    36  C    8.762304   6.314537   6.386255   5.392943   4.030915
    37  H    8.988363   6.470681   6.561371   5.657304   4.419866
    38  H    7.375526   5.249309   5.095249   4.042800   2.860645
    39  H    8.970720   4.464762   4.912207   4.484414   3.401469
    40  H   10.129658   5.534814   6.124573   5.649406   4.361887
    41  H   10.125556   5.537743   6.126859   5.649397   4.360644
    42  H    8.965354   4.469355   4.916372   4.485034   3.399999
    43  H    8.977451   6.471354   6.560958   5.653698   4.415116
    44  H    7.367380   5.247746   5.093196   4.038139   2.854154
    45  H    8.468301   7.046846   6.934244   5.795207   4.529102
    46  H    9.852370   7.003705   7.234323   6.342072   4.951456
                   16         17         18         19         20
    16  H    0.000000
    17  H    2.447523   0.000000
    18  H    4.938334   4.276986   0.000000
    19  C    2.155008   3.382763   3.386400   0.000000
    20  C    3.402932   3.875585   2.151737   1.394627   0.000000
    21  C    4.205440   5.700479   4.297148   2.324842   2.363455
    22  C    2.905891   4.723847   4.481841   1.469758   2.330390
    23  C    3.115788   5.378579   5.846621   2.607344   3.698577
    24  C    4.501913   6.769993   6.834820   3.834689   4.701909
    25  C    5.434097   7.488379   6.719501   4.238542   4.721154
    26  C    5.314616   7.030571   5.572879   3.650307   3.747575
    27  H    2.601120   5.026887   6.298095   2.915585   4.216399
    28  H    5.044356   7.427032   7.861734   4.741380   5.716050
    29  H    6.471921   8.564150   7.683786   5.316990   5.744558
    30  H    6.298137   7.853748   5.847618   4.484105   4.297690
    31  C    6.569523   6.710212   2.949114   4.542305   3.301377
    32  C    5.563278   6.215949   3.284853   3.502426   2.560982
    33  C    4.558303   5.389297   2.945150   2.404618   1.531331
    34  C    5.564603   6.212397   3.292388   3.503939   2.560269
    35  C    6.569185   6.705034   2.955539   4.542198   3.299420
    36  C    7.298615   7.411972   3.365170   5.203025   3.899029
    37  H    7.401498   7.547754   3.879392   5.426241   4.268566
    38  H    6.267271   6.046529   2.198569   4.404217   3.113996
    39  H    5.236760   5.905211   3.533370   3.394165   2.702583
    40  H    6.277705   7.180766   4.328785   4.231741   3.468201
    41  H    6.279846   7.177924   4.334740   4.233796   3.467911
    42  H    5.239292   5.899636   3.546369   3.396966   2.702012
    43  H    7.401101   7.539646   3.887036   5.426322   4.266115
    44  H    6.264841   6.038461   2.206042   4.401944   3.109483
    45  H    8.073708   7.905545   3.666504   6.046964   4.684222
    46  H    7.926303   8.286626   4.389122   5.780885   4.589727
                   21         22         23         24         25
    21  C    0.000000
    22  C    1.393990   0.000000
    23  C    2.423690   1.396518   0.000000
    24  C    2.798069   2.414925   1.395668   0.000000
    25  C    2.423262   2.786743   2.417656   1.395683   0.000000
    26  C    1.399977   2.412998   2.792980   2.418238   1.396000
    27  H    3.404194   2.157485   1.079557   2.144843   3.392767
    28  H    3.878379   3.394211   2.149271   1.080311   2.150602
    29  H    3.401622   3.867159   3.396436   2.150080   1.080416
    30  H    2.159804   3.396680   3.872773   3.391378   2.142048
    31  C    3.918878   4.840226   6.135934   6.617884   5.979539
    32  C    2.521139   3.487208   4.697874   5.114215   4.512225
    33  C    1.525286   2.405255   3.730357   4.309905   3.889053
    34  C    2.521217   3.488310   4.698989   5.114828   4.512109
    35  C    3.918710   4.840312   6.136228   6.618227   5.979739
    36  C    4.367685   5.431657   6.729944   7.116226   6.343725
    37  H    4.671902   5.631401   6.850583   7.228271   6.510674
    38  H    4.357210   5.019479   6.365688   7.047093   6.595209
    39  H    2.812245   3.451990   4.563341   5.070855   4.660158
    40  H    2.660469   3.853577   4.876956   4.989994   4.137807
    41  H    2.661291   3.855578   4.879210   4.991777   4.138620
    42  H    2.811744   3.453445   4.564623   5.070948   4.658872
    43  H    4.672468   5.632118   6.851725   7.229725   6.512077
    44  H    4.355204   5.017557   6.364063   7.045681   6.593838
    45  H    5.421858   6.420729   7.749706   8.188938   7.434540
    46  H    4.514730   5.746086   6.937348   7.110517   6.159379
                   26         27         28         29         30
    26  C    0.000000
    27  H    3.872513   0.000000
    28  H    3.397244   2.467352   0.000000
    29  H    2.150012   4.283886   2.476767   0.000000
    30  H    1.079867   4.952272   4.281964   2.463299   0.000000
    31  C    4.643181   6.936970   7.679001   6.685983   4.432318
    32  C    3.236510   5.548131   6.163608   5.264056   3.203121
    33  C    2.648095   4.561741   5.388705   4.787349   2.933315
    34  C    3.235930   5.549550   6.164291   5.263656   3.201818
    35  C    4.643147   6.937323   7.679437   6.686224   4.432219
    36  C    4.948375   7.588746   8.186526   6.969461   4.555767
    37  H    5.215617   7.668692   8.257428   7.120042   4.887073
    38  H    5.309156   7.039657   8.105185   7.400061   5.267894
    39  H    3.581627   5.305107   6.064441   5.448774   3.742046
    40  H    2.867091   5.832383   5.997802   4.708797   2.538929
    41  H    2.867138   5.834966   5.999707   4.709179   2.537532
    42  H    3.579744   5.307087   6.064623   5.446926   3.739143
    43  H    5.216651   7.669813   8.259057   7.121629   4.888153
    44  H    5.307589   7.038058   8.103893   7.398888   5.266559
    45  H    6.039338   8.570032   9.262375   8.054997   5.630005
    46  H    4.782377   7.882316   8.148895   6.634124   4.170987
                   31         32         33         34         35
    31  C    0.000000
    32  C    1.544352   0.000000
    33  C    2.607225   1.556509   0.000000
    34  C    2.994380   2.571872   1.556393   0.000000
    35  C    2.558917   2.994328   2.606621   1.544305   0.000000
    36  C    1.540708   2.558827   3.027202   2.558245   1.540615
    37  H    1.091001   2.168091   3.531964   3.972168   3.494886
    38  H    1.089248   2.174439   2.952473   3.447126   2.881069
    39  H    2.174348   1.091475   2.185697   3.512307   3.976698
    40  H    2.142280   1.090815   2.172893   2.905281   3.436240
    41  H    3.434559   2.904656   2.172906   1.090840   2.142365
    42  H    3.977579   3.512455   2.185618   1.091540   2.174602
    43  H    3.495037   3.972933   3.531762   2.168222   1.091019
    44  H    2.879722   3.444613   2.949906   2.174279   1.089270
    45  H    2.169872   3.498963   4.022109   3.498720   2.170042
    46  H    2.162127   2.857259   3.427694   2.856002   2.162136
                   36         37         38         39         40
    36  C    0.000000
    37  H    2.166189   0.000000
    38  H    2.170424   1.732731   0.000000
    39  H    3.498904   2.518978   2.465141   0.000000
    40  H    2.851060   2.411637   3.041562   1.735821   0.000000
    41  H    2.849120   4.236601   4.133546   3.902138   2.818546
    42  H    3.498756   5.001449   4.258962   4.333588   3.902385
    43  H    2.166225   4.308249   3.870087   5.001387   4.239745
    44  H    2.170111   3.869215   2.778595   4.254908   4.132911
    45  H    1.091084   2.512697   2.462432   4.319039   3.834791
    46  H    1.091486   2.450577   3.057957   3.850470   2.718774
                   41         42         43         44         45
    41  H    0.000000
    42  H    1.735911   0.000000
    43  H    2.412936   2.518490   0.000000
    44  H    3.041855   2.466482   1.733289   0.000000
    45  H    3.833184   4.319455   2.512595   2.463058   0.000000
    46  H    2.715793   3.849101   2.451245   3.057948   1.743107
                   46
    46  H    0.000000
 Stoichiometry    C24H22
 Framework group  C1[X(C24H22)]
 Deg. of freedom   132
 Full point group                 C1      NOp   1
 Largest Abelian subgroup         C1      NOp   1
 Largest concise Abelian subgroup C1      NOp   1
                         Standard orientation:                         
 ---------------------------------------------------------------------
 Center     Atomic      Atomic             Coordinates (Angstroms)
 Number     Number       Type             X           Y           Z
 ---------------------------------------------------------------------
      1          6           0       -3.291579   -0.576001   -0.040214
      2          6           0       -4.188160   -1.392778    0.661928
      3          6           0       -5.551753   -1.109333    0.672695
      4          6           0       -6.030829   -0.002844   -0.023052
      5          6           0       -5.156753    0.820471   -0.727365
      6          6           0       -3.793880    0.533382   -0.733816
      7          1           0       -6.233081   -1.743645    1.221023
      8          1           0       -5.533179    1.676015   -1.269185
      9          1           0       -3.825827   -2.245930    1.216417
     10          1           0       -3.126665    1.171063   -1.294882
     11          1           0       -7.088529    0.218406   -0.016461
     12          6           0       -0.007338   -2.491170   -0.125294
     13          6           0       -1.371502   -2.203966   -0.113632
     14          6           0       -1.830401   -0.881346   -0.049310
     15          6           0       -0.879218    0.148058    0.005429
     16          1           0        0.319766   -3.518177   -0.180163
     17          1           0       -2.076462   -3.019808   -0.170650
     18          1           0       -1.226873    1.165043    0.069831
     19          6           0        0.918866   -1.451010   -0.070798
     20          6           0        0.494213   -0.124255   -0.004639
     21          6           0        2.857236   -0.169315   -0.001031
     22          6           0        2.388332   -1.480279   -0.069677
     23          6           0        3.281565   -2.552420   -0.123627
     24          6           0        4.655927   -2.309949   -0.108660
     25          6           0        5.133256   -1.000223   -0.040064
     26          6           0        4.236781    0.068541    0.013718
     27          1           0        2.920400   -3.568376   -0.176895
     28          1           0        5.349616   -3.137074   -0.150271
     29          1           0        6.197276   -0.813065   -0.028485
     30          1           0        4.620077    1.076700    0.066757
     31          6           0        0.786957    2.832874    1.433686
     32          6           0        1.750285    1.627052    1.378775
     33          6           0        1.698006    0.820755    0.048410
     34          6           0        1.755930    1.762297   -1.189532
     35          6           0        0.790946    2.966080   -1.121759
     36          6           0        0.929861    3.744942    0.200198
     37          1           0        0.976964    3.410022    2.339822
     38          1           0       -0.241738    2.486536    1.524779
     39          1           0        1.565529    0.963442    2.225418
     40          1           0        2.761935    2.007949    1.524924
     41          1           0        2.767734    2.157470   -1.289647
     42          1           0        1.576420    1.191056   -2.102175
     43          1           0        0.982268    3.634473   -1.962573
     44          1           0       -0.237020    2.629456   -1.250134
     45          1           0        0.187446    4.543460    0.240864
     46          1           0        1.903455    4.237598    0.227462
 ---------------------------------------------------------------------
 Rotational constants (GHZ):           0.4453371           0.1505184           0.1198455
 Standard basis: def2TZVP (5D, 7F)
 There are   996 symmetry adapted cartesian basis functions of A   symmetry.
 There are   876 symmetry adapted basis functions of A   symmetry.
   876 basis functions,  1400 primitive gaussians,   996 cartesian basis functions
    83 alpha electrons       83 beta electrons
       nuclear repulsion energy      1905.4186208056 Hartrees.
 NAtoms=   46 NActive=   46 NUniq=   46 SFac= 1.00D+00 NAtFMM=   60 NAOKFM=F Big=F
 Integral buffers will be    131072 words long.
 Raffenetti 2 integral format.
 Two-electron integral symmetry is turned on.
 One-electron integrals computed using PRISM.
   1 Symmetry operations used in ECPInt.
 ECPInt:  NShTT=   62128 NPrTT=  188172 LenC2=   52982 LenP2D=  113289.
 LDataN:  DoStor=T MaxTD1= 6 Len=  172
 Number of processors reduced to  27 by ecpmxn.
 NBasis=   876 RedAO= T EigKep=  4.19D-06  NBF=   876
 NBsUse=   876 1.00D-06 EigRej= -1.00D+00 NBFU=   876
 ExpMin= 9.52D-02 ExpMax= 1.36D+04 ExpMxC= 4.63D+02 IAcc=3 IRadAn=         5 AccDes= 0.00D+00
 Harris functional with IExCor= 1009 and IRadAn=       5 diagonalized for initial guess.
 HarFok:  IExCor= 1009 AccDes= 0.00D+00 IRadAn=         5 IDoV= 1 UseB2=F ITyADJ=14
 ICtDFT=  3500011 ScaDFX=  1.000000  1.000000  1.000000  1.000000
 FoFCou: FMM=F IPFlag=           0 FMFlag=      100000 FMFlg1=           0
         NFxFlg=           0 DoJE=T BraDBF=F KetDBF=T FulRan=T
         wScrn=  0.000000 ICntrl=       500 IOpCl=  0 I1Cent=   200000004 NGrid=           0
         NMat0=    1 NMatS0=      1 NMatT0=    0 NMatD0=    1 NMtDS0=    0 NMtDT0=    0
 Petite list used in FoFCou.
 Requested convergence on RMS density matrix=1.00D-08 within 128 cycles.
 Requested convergence on MAX density matrix=1.00D-06.
 Requested convergence on             energy=1.00D-06.
 No special actions if energy rises.
 Integral accuracy reduced to 1.0D-05 until final iterations.
 Problem detected with inexpensive integrals.
 Switching to full accuracy and repeating last cycle.
 SCF Done:  E(RM062X) =  -927.766932598     A.U. after   14 cycles
            NFock= 14  Conv=0.49D-08     -V/T= 2.0055

 **********************************************************************

            Population analysis using the SCF Density.

 **********************************************************************

 Orbital symmetries:
       Occupied  (A) (A) (A) (A) (A) (A) (A) (A) (A) (A) (A) (A)
                 (A) (A) (A) (A) (A) (A) (A) (A) (A) (A) (A) (A)
                 (A) (A) (A) (A) (A) (A) (A) (A) (A) (A) (A) (A)
                 (A) (A) (A) (A) (A) (A) (A) (A) (A) (A) (A) (A)
                 (A) (A) (A) (A) (A) (A) (A) (A) (A) (A) (A) (A)
                 (A) (A) (A) (A) (A) (A) (A) (A) (A) (A) (A) (A)
                 (A) (A) (A) (A) (A) (A) (A) (A) (A) (A) (A)
       Virtual   (A) (A) (A) (A) (A) (A) (A) (A) (A) (A) (A) (A)
                 (A) (A) (A) (A) (A) (A) (A) (A) (A) (A) (A) (A)
                 (A) (A) (A) (A) (A) (A) (A) (A) (A) (A) (A) (A)
                 (A) (A) (A) (A) (A) (A) (A) (A) (A) (A) (A) (A)
                 (A) (A) (A) (A) (A) (A) (A) (A) (A) (A) (A) (A)
                 (A) (A) (A) (A) (A) (A) (A) (A) (A) (A) (A) (A)
                 (A) (A) (A) (A) (A) (A) (A) (A) (A) (A) (A) (A)
                 (A) (A) (A) (A) (A) (A) (A) (A) (A) (A) (A) (A)
                 (A) (A) (A) (A) (A) (A) (A) (A) (A) (A) (A) (A)
                 (A) (A) (A) (A) (A) (A) (A) (A) (A) (A) (A) (A)
                 (A) (A) (A) (A) (A) (A) (A) (A) (A) (A) (A) (A)
                 (A) (A) (A) (A) (A) (A) (A) (A) (A) (A) (A) (A)
                 (A) (A) (A) (A) (A) (A) (A) (A) (A) (A) (A) (A)
                 (A) (A) (A) (A) (A) (A) (A) (A) (A) (A) (A) (A)
                 (A) (A) (A) (A) (A) (A) (A) (A) (A) (A) (A) (A)
                 (A) (A) (A) (A) (A) (A) (A) (A) (A) (A) (A) (A)
                 (A) (A) (A) (A) (A) (A) (A) (A) (A) (A) (A) (A)
                 (A) (A) (A) (A) (A) (A) (A) (A) (A) (A) (A) (A)
                 (A) (A) (A) (A) (A) (A) (A) (A) (A) (A) (A) (A)
                 (A) (A) (A) (A) (A) (A) (A) (A) (A) (A) (A) (A)
                 (A) (A) (A) (A) (A) (A) (A) (A) (A) (A) (A) (A)
                 (A) (A) (A) (A) (A) (A) (A) (A) (A) (A) (A) (A)
                 (A) (A) (A) (A) (A) (A) (A) (A) (A) (A) (A) (A)
                 (A) (A) (A) (A) (A) (A) (A) (A) (A) (A) (A) (A)
                 (A) (A) (A) (A) (A) (A) (A) (A) (A) (A) (A) (A)
                 (A) (A) (A) (A) (A) (A) (A) (A) (A) (A) (A) (A)
                 (A) (A) (A) (A) (A) (A) (A) (A) (A) (A) (A) (A)
                 (A) (A) (A) (A) (A) (A) (A) (A) (A) (A) (A) (A)
                 (A) (A) (A) (A) (A) (A) (A) (A) (A) (A) (A) (A)
                 (A) (A) (A) (A) (A) (A) (A) (A) (A) (A) (A) (A)
                 (A) (A) (A) (A) (A) (A) (A) (A) (A) (A) (A) (A)
                 (A) (A) (A) (A) (A) (A) (A) (A) (A) (A) (A) (A)
                 (A) (A) (A) (A) (A) (A) (A) (A) (A) (A) (A) (A)
                 (A) (A) (A) (A) (A) (A) (A) (A) (A) (A) (A) (A)
                 (A) (A) (A) (A) (A) (A) (A) (A) (A) (A) (A) (A)
                 (A) (A) (A) (A) (A) (A) (A) (A) (A) (A) (A) (A)
                 (A) (A) (A) (A) (A) (A) (A) (A) (A) (A) (A) (A)
                 (A) (A) (A) (A) (A) (A) (A) (A) (A) (A) (A) (A)
                 (A) (A) (A) (A) (A) (A) (A) (A) (A) (A) (A) (A)
                 (A) (A) (A) (A) (A) (A) (A) (A) (A) (A) (A) (A)
                 (A) (A) (A) (A) (A) (A) (A) (A) (A) (A) (A) (A)
                 (A) (A) (A) (A) (A) (A) (A) (A) (A) (A) (A) (A)
                 (A) (A) (A) (A) (A) (A) (A) (A) (A) (A) (A) (A)
                 (A) (A) (A) (A) (A) (A) (A) (A) (A) (A) (A) (A)
                 (A) (A) (A) (A) (A) (A) (A) (A) (A) (A) (A) (A)
                 (A) (A) (A) (A) (A) (A) (A) (A) (A) (A) (A) (A)
                 (A) (A) (A) (A) (A) (A) (A) (A) (A) (A) (A) (A)
                 (A) (A) (A) (A) (A) (A) (A) (A) (A) (A) (A) (A)
                 (A) (A) (A) (A) (A) (A) (A) (A) (A) (A) (A) (A)
                 (A) (A) (A) (A) (A) (A) (A) (A) (A) (A) (A) (A)
                 (A) (A) (A) (A) (A) (A) (A) (A) (A) (A) (A) (A)
                 (A) (A) (A) (A) (A) (A) (A) (A) (A) (A) (A) (A)
                 (A) (A) (A) (A) (A) (A) (A) (A) (A) (A) (A) (A)
                 (A) (A) (A) (A) (A) (A) (A) (A) (A) (A) (A) (A)
                 (A) (A) (A) (A) (A) (A) (A) (A) (A) (A) (A) (A)
                 (A) (A) (A) (A) (A) (A) (A) (A) (A) (A) (A) (A)
                 (A) (A) (A) (A) (A) (A) (A) (A) (A) (A) (A) (A)
                 (A) (A) (A) (A) (A) (A) (A) (A) (A) (A) (A) (A)
                 (A) (A) (A) (A) (A) (A) (A) (A) (A) (A) (A) (A)
                 (A) (A) (A) (A) (A) (A) (A) (A) (A) (A) (A) (A)
                 (A) (A) (A) (A) (A) (A) (A) (A) (A) (A) (A) (A)
                 (A) (A) (A) (A) (A) (A) (A) (A) (A) (A) (A) (A)
                 (A) (A) (A) (A) (A) (A) (A) (A) (A) (A) (A) (A)
                 (A) (A) (A) (A) (A) (A) (A) (A) (A) (A) (A) (A)
                 (A) (A) (A) (A) (A) (A) (A) (A) (A) (A) (A) (A)
                 (A) (A) (A) (A) (A) (A) (A) (A) (A) (A) (A) (A)
                 (A)
 The electronic state is 1-A.
 Alpha  occ. eigenvalues --  -10.56105 -10.55544 -10.55373 -10.54668 -10.54536
 Alpha  occ. eigenvalues --  -10.54492 -10.54407 -10.54370 -10.54354 -10.54301
 Alpha  occ. eigenvalues --  -10.54293 -10.54291 -10.54277 -10.54274 -10.54241
 Alpha  occ. eigenvalues --  -10.54167 -10.54167 -10.54129 -10.54074 -10.53599
 Alpha  occ. eigenvalues --  -10.53556 -10.53114 -10.53033 -10.52995  -0.99965
 Alpha  occ. eigenvalues --   -0.96974  -0.94663  -0.93150  -0.89734  -0.86878
 Alpha  occ. eigenvalues --   -0.84664  -0.84615  -0.83899  -0.83614  -0.81138
 Alpha  occ. eigenvalues --   -0.79977  -0.73413  -0.71638  -0.70113  -0.69485
 Alpha  occ. eigenvalues --   -0.68249  -0.66331  -0.65737  -0.65494  -0.62325
 Alpha  occ. eigenvalues --   -0.59426  -0.58700  -0.55833  -0.55297  -0.53972
 Alpha  occ. eigenvalues --   -0.53099  -0.51934  -0.51711  -0.51499  -0.51051
 Alpha  occ. eigenvalues --   -0.50393  -0.49412  -0.48964  -0.48365  -0.48192
 Alpha  occ. eigenvalues --   -0.47789  -0.45501  -0.44774  -0.44542  -0.44090
 Alpha  occ. eigenvalues --   -0.43115  -0.42531  -0.42422  -0.41381  -0.40717
 Alpha  occ. eigenvalues --   -0.40540  -0.39772  -0.39480  -0.39007  -0.36687
 Alpha  occ. eigenvalues --   -0.36187  -0.35383  -0.34873  -0.31015  -0.30792
 Alpha  occ. eigenvalues --   -0.30378  -0.29783  -0.25919
 Alpha virt. eigenvalues --   -0.01927   0.00952   0.01866   0.02703   0.03123
 Alpha virt. eigenvalues --    0.05894   0.07072   0.07517   0.08583   0.08997
 Alpha virt. eigenvalues --    0.09318   0.09777   0.09902   0.10808   0.11213
 Alpha virt. eigenvalues --    0.12276   0.12716   0.12800   0.13262   0.13842
 Alpha virt. eigenvalues --    0.13883   0.13885   0.14895   0.15433   0.15724
 Alpha virt. eigenvalues --    0.16225   0.16960   0.17426   0.18179   0.18572
 Alpha virt. eigenvalues --    0.19361   0.19706   0.20090   0.20511   0.21154
 Alpha virt. eigenvalues --    0.21370   0.22206   0.22829   0.22935   0.23401
 Alpha virt. eigenvalues --    0.23462   0.23954   0.24207   0.24386   0.24689
 Alpha virt. eigenvalues --    0.24916   0.25176   0.25478   0.25919   0.26090
 Alpha virt. eigenvalues --    0.26482   0.26758   0.27236   0.27418   0.27848
 Alpha virt. eigenvalues --    0.28143   0.28565   0.28749   0.29018   0.29983
 Alpha virt. eigenvalues --    0.30741   0.30786   0.31180   0.32054   0.32678
 Alpha virt. eigenvalues --    0.32853   0.33714   0.34380   0.34751   0.35112
 Alpha virt. eigenvalues --    0.35344   0.35890   0.36067   0.36429   0.37304
 Alpha virt. eigenvalues --    0.37436   0.37644   0.38024   0.38064   0.38889
 Alpha virt. eigenvalues --    0.39080   0.39483   0.39811   0.40353   0.40698
 Alpha virt. eigenvalues --    0.40713   0.41613   0.41704   0.42242   0.42826
 Alpha virt. eigenvalues --    0.43203   0.43435   0.43722   0.44128   0.44326
 Alpha virt. eigenvalues --    0.44635   0.44775   0.45348   0.45633   0.46069
 Alpha virt. eigenvalues --    0.46250   0.46534   0.46970   0.47300   0.47560
 Alpha virt. eigenvalues --    0.47794   0.48067   0.48194   0.48730   0.48846
 Alpha virt. eigenvalues --    0.49101   0.49782   0.49844   0.50637   0.51195
 Alpha virt. eigenvalues --    0.51576   0.51961   0.52362   0.52493   0.52889
 Alpha virt. eigenvalues --    0.53126   0.53179   0.53998   0.54757   0.54924
 Alpha virt. eigenvalues --    0.55153   0.55903   0.56348   0.56853   0.57328
 Alpha virt. eigenvalues --    0.58438   0.58751   0.59442   0.60487   0.61052
 Alpha virt. eigenvalues --    0.61380   0.62102   0.62411   0.62545   0.63609
 Alpha virt. eigenvalues --    0.64216   0.64833   0.65834   0.66124   0.67082
 Alpha virt. eigenvalues --    0.68051   0.68544   0.69197   0.69515   0.70437
 Alpha virt. eigenvalues --    0.70871   0.71274   0.71687   0.72081   0.72475
 Alpha virt. eigenvalues --    0.73156   0.73468   0.73816   0.74695   0.74759
 Alpha virt. eigenvalues --    0.75030   0.75491   0.76018   0.76472   0.77143
 Alpha virt. eigenvalues --    0.77762   0.78066   0.78541   0.79232   0.79699
 Alpha virt. eigenvalues --    0.79848   0.80738   0.80852   0.81838   0.82279
 Alpha virt. eigenvalues --    0.82790   0.83151   0.84170   0.85064   0.85216
 Alpha virt. eigenvalues --    0.86310   0.86518   0.86903   0.88423   0.88804
 Alpha virt. eigenvalues --    0.89215   0.89938   0.90116   0.90821   0.91529
 Alpha virt. eigenvalues --    0.92135   0.92615   0.92998   0.93756   0.93831
 Alpha virt. eigenvalues --    0.94324   0.95007   0.95491   0.95855   0.97025
 Alpha virt. eigenvalues --    0.97135   0.97733   0.98206   0.99277   0.99933
 Alpha virt. eigenvalues --    1.00639   1.00982   1.01957   1.02207   1.02748
 Alpha virt. eigenvalues --    1.03794   1.04559   1.05271   1.05751   1.06347
 Alpha virt. eigenvalues --    1.06543   1.08351   1.08552   1.09152   1.09641
 Alpha virt. eigenvalues --    1.10476   1.11444   1.12997   1.13229   1.13846
 Alpha virt. eigenvalues --    1.14018   1.14583   1.15553   1.16543   1.16872
 Alpha virt. eigenvalues --    1.17510   1.18049   1.19368   1.20374   1.21027
 Alpha virt. eigenvalues --    1.22296   1.22890   1.23148   1.23202   1.24265
 Alpha virt. eigenvalues --    1.24806   1.25271   1.25645   1.26236   1.26909
 Alpha virt. eigenvalues --    1.27290   1.27901   1.28818   1.29013   1.29608
 Alpha virt. eigenvalues --    1.29958   1.30732   1.31394   1.31717   1.31866
 Alpha virt. eigenvalues --    1.32375   1.32560   1.33192   1.34170   1.34752
 Alpha virt. eigenvalues --    1.35450   1.35886   1.36366   1.38234   1.38421
 Alpha virt. eigenvalues --    1.38760   1.39333   1.40584   1.41383   1.41962
 Alpha virt. eigenvalues --    1.44317   1.44904   1.45729   1.46777   1.47760
 Alpha virt. eigenvalues --    1.47939   1.48381   1.48632   1.49521   1.50347
 Alpha virt. eigenvalues --    1.51248   1.51602   1.53005   1.53391   1.53831
 Alpha virt. eigenvalues --    1.54212   1.55008   1.55584   1.55743   1.56177
 Alpha virt. eigenvalues --    1.57598   1.57802   1.58307   1.58848   1.59447
 Alpha virt. eigenvalues --    1.60049   1.60512   1.61604   1.62407   1.63199
 Alpha virt. eigenvalues --    1.63438   1.64077   1.64506   1.65523   1.65599
 Alpha virt. eigenvalues --    1.66296   1.66808   1.67974   1.68420   1.68684
 Alpha virt. eigenvalues --    1.69875   1.70285   1.71180   1.71925   1.72134
 Alpha virt. eigenvalues --    1.72981   1.73597   1.74484   1.74804   1.75337
 Alpha virt. eigenvalues --    1.76403   1.76732   1.76945   1.77459   1.77820
 Alpha virt. eigenvalues --    1.78295   1.78968   1.79452   1.80339   1.80577
 Alpha virt. eigenvalues --    1.81484   1.82613   1.83125   1.85100   1.85846
 Alpha virt. eigenvalues --    1.86164   1.86616   1.86944   1.88752   1.89520
 Alpha virt. eigenvalues --    1.90448   1.91057   1.91536   1.92236   1.93113
 Alpha virt. eigenvalues --    1.93447   1.94802   1.95583   1.95922   1.96948
 Alpha virt. eigenvalues --    1.98969   1.99566   2.00357   2.01331   2.02335
 Alpha virt. eigenvalues --    2.02663   2.04195   2.04268   2.04950   2.05786
 Alpha virt. eigenvalues --    2.07215   2.07911   2.08250   2.09414   2.10302
 Alpha virt. eigenvalues --    2.10572   2.11179   2.12315   2.13337   2.13659
 Alpha virt. eigenvalues --    2.14459   2.15085   2.16120   2.16684   2.18021
 Alpha virt. eigenvalues --    2.18342   2.18737   2.19905   2.20115   2.20993
 Alpha virt. eigenvalues --    2.21260   2.21649   2.23248   2.24307   2.25112
 Alpha virt. eigenvalues --    2.25988   2.26284   2.26608   2.27094   2.27568
 Alpha virt. eigenvalues --    2.28466   2.29217   2.30735   2.32160   2.32971
 Alpha virt. eigenvalues --    2.34105   2.35234   2.36133   2.37628   2.38166
 Alpha virt. eigenvalues --    2.38897   2.39369   2.41209   2.43475   2.44164
 Alpha virt. eigenvalues --    2.44701   2.45061   2.45444   2.46736   2.47753
 Alpha virt. eigenvalues --    2.48164   2.48695   2.50021   2.50851   2.51223
 Alpha virt. eigenvalues --    2.51975   2.52217   2.52746   2.53669   2.54209
 Alpha virt. eigenvalues --    2.54863   2.55758   2.56270   2.57825   2.58061
 Alpha virt. eigenvalues --    2.58847   2.59743   2.60397   2.60631   2.61739
 Alpha virt. eigenvalues --    2.62261   2.62713   2.63155   2.63554   2.64041
 Alpha virt. eigenvalues --    2.65500   2.65781   2.66028   2.66103   2.66226
 Alpha virt. eigenvalues --    2.66868   2.67101   2.67577   2.68091   2.68750
 Alpha virt. eigenvalues --    2.69169   2.69206   2.70320   2.70453   2.70722
 Alpha virt. eigenvalues --    2.71340   2.71852   2.72822   2.73398   2.73646
 Alpha virt. eigenvalues --    2.73935   2.74155   2.74591   2.75577   2.75825
 Alpha virt. eigenvalues --    2.76171   2.76545   2.77045   2.77794   2.78330
 Alpha virt. eigenvalues --    2.78539   2.78937   2.79213   2.79830   2.80414
 Alpha virt. eigenvalues --    2.81136   2.81321   2.82228   2.82702   2.83099
 Alpha virt. eigenvalues --    2.84283   2.84380   2.84552   2.84831   2.85230
 Alpha virt. eigenvalues --    2.85819   2.86466   2.86548   2.87026   2.87324
 Alpha virt. eigenvalues --    2.88294   2.88814   2.89645   2.90112   2.91000
 Alpha virt. eigenvalues --    2.91048   2.91637   2.93808   2.94422   2.95446
 Alpha virt. eigenvalues --    2.95888   2.96050   2.96621   2.97558   2.99081
 Alpha virt. eigenvalues --    2.99622   3.00369   3.00739   3.01348   3.01954
 Alpha virt. eigenvalues --    3.03231   3.03393   3.04057   3.04388   3.05138
 Alpha virt. eigenvalues --    3.05543   3.06438   3.07208   3.07855   3.08820
 Alpha virt. eigenvalues --    3.09539   3.10028   3.10356   3.10893   3.11535
 Alpha virt. eigenvalues --    3.12262   3.13316   3.14575   3.14627   3.15499
 Alpha virt. eigenvalues --    3.15803   3.16061   3.16888   3.17009   3.17192
 Alpha virt. eigenvalues --    3.18219   3.18261   3.19035   3.19792   3.20420
 Alpha virt. eigenvalues --    3.20601   3.20836   3.21624   3.22073   3.22575
 Alpha virt. eigenvalues --    3.23289   3.23563   3.24053   3.24853   3.25723
 Alpha virt. eigenvalues --    3.26272   3.26674   3.27033   3.27588   3.28116
 Alpha virt. eigenvalues --    3.29011   3.29395   3.30682   3.31069   3.31234
 Alpha virt. eigenvalues --    3.31987   3.32359   3.32513   3.33179   3.33444
 Alpha virt. eigenvalues --    3.34157   3.34766   3.35101   3.35560   3.36434
 Alpha virt. eigenvalues --    3.36727   3.37470   3.37656   3.38504   3.38725
 Alpha virt. eigenvalues --    3.39072   3.39939   3.40759   3.41056   3.41529
 Alpha virt. eigenvalues --    3.42109   3.42508   3.42935   3.43288   3.44209
 Alpha virt. eigenvalues --    3.44433   3.45249   3.45357   3.45872   3.46359
 Alpha virt. eigenvalues --    3.46970   3.47369   3.47613   3.48732   3.49259
 Alpha virt. eigenvalues --    3.49600   3.50137   3.50577   3.51447   3.52273
 Alpha virt. eigenvalues --    3.53030   3.53191   3.53578   3.53896   3.54155
 Alpha virt. eigenvalues --    3.54592   3.54861   3.55168   3.56006   3.57013
 Alpha virt. eigenvalues --    3.57227   3.58050   3.58776   3.59485   3.59917
 Alpha virt. eigenvalues --    3.60933   3.61979   3.62622   3.63103   3.63389
 Alpha virt. eigenvalues --    3.64536   3.64736   3.65252   3.66657   3.67735
 Alpha virt. eigenvalues --    3.68396   3.69320   3.70115   3.71343   3.72542
 Alpha virt. eigenvalues --    3.74029   3.74520   3.76246   3.76400   3.77241
 Alpha virt. eigenvalues --    3.79127   3.80277   3.81408   3.82259   3.83430
 Alpha virt. eigenvalues --    3.83881   3.85832   3.88067   3.89229   3.89782
 Alpha virt. eigenvalues --    3.92257   3.92544   3.92952   3.94343   3.94940
 Alpha virt. eigenvalues --    3.95715   3.96273   3.97235   3.97560   4.00689
 Alpha virt. eigenvalues --    4.01904   4.02927   4.03327   4.03613   4.04454
 Alpha virt. eigenvalues --    4.04703   4.04918   4.05167   4.06797   4.08471
 Alpha virt. eigenvalues --    4.08991   4.09262   4.09730   4.10368   4.11545
 Alpha virt. eigenvalues --    4.11911   4.12740   4.13149   4.13549   4.14436
 Alpha virt. eigenvalues --    4.15431   4.16082   4.16684   4.17606   4.18563
 Alpha virt. eigenvalues --    4.18657   4.19377   4.19557   4.19814   4.20262
 Alpha virt. eigenvalues --    4.20665   4.21158   4.21624   4.23672   4.24344
 Alpha virt. eigenvalues --    4.25269   4.26173   4.27280   4.27921   4.28206
 Alpha virt. eigenvalues --    4.28806   4.30583   4.31739   4.33205   4.33744
 Alpha virt. eigenvalues --    4.34399   4.35690   4.36355   4.37367   4.38397
 Alpha virt. eigenvalues --    4.39555   4.40383   4.42226   4.42868   4.44330
 Alpha virt. eigenvalues --    4.46119   4.47916   4.50399   4.51492   4.53044
 Alpha virt. eigenvalues --    4.53535   4.55298   4.56054   4.57323   4.58538
 Alpha virt. eigenvalues --    4.60578   4.61696   4.61927   4.62642   4.64369
 Alpha virt. eigenvalues --    4.65154   4.66327   4.67331   4.70975   4.71694
 Alpha virt. eigenvalues --    4.73378   4.75059   4.75881   4.77109   4.77794
 Alpha virt. eigenvalues --    4.79144   4.81411   4.83892   4.85346   4.85809
 Alpha virt. eigenvalues --    4.86272   4.86655   4.87746   4.90432   4.90907
 Alpha virt. eigenvalues --    4.93775   4.96449   4.96772   4.99592   5.00342
 Alpha virt. eigenvalues --    5.06107   5.06298   5.06363   5.10425   5.13325
 Alpha virt. eigenvalues --    5.17077   5.18038   5.20503   5.23646   5.27710
 Alpha virt. eigenvalues --    5.30232   5.32651   5.34324   5.37987   5.42639
 Alpha virt. eigenvalues --    5.44016   5.50687   5.54987   5.57449   5.61672
 Alpha virt. eigenvalues --    5.68069   5.70372   5.73219   6.03957  22.20179
 Alpha virt. eigenvalues --   22.37756  22.59835  22.61744  22.64880  22.65922
 Alpha virt. eigenvalues --   22.68984  22.71346  22.73870  22.74726  22.75419
 Alpha virt. eigenvalues --   22.79736  22.81341  22.83972  22.89903  22.92930
 Alpha virt. eigenvalues --   22.97190  23.04768  23.17583  23.18362  23.24065
 Alpha virt. eigenvalues --   23.40907  23.76219  23.92241
          Condensed to atoms (all electrons):
               1          2          3          4          5          6
     1  C    5.012628   0.505357  -0.056219  -0.041302  -0.052751   0.491546
     2  C    0.505357   5.018768   0.504694  -0.043655  -0.048324  -0.025686
     3  C   -0.056219   0.504694   4.903678   0.522828  -0.034541  -0.051600
     4  C   -0.041302  -0.043655   0.522828   4.878668   0.520627  -0.039636
     5  C   -0.052751  -0.048324  -0.034541   0.520627   4.905122   0.502103
     6  C    0.491546  -0.025686  -0.051600  -0.039636   0.502103   5.033649
     7  H    0.005114  -0.031617   0.408555  -0.031700   0.003710  -0.000116
     8  H    0.004439   0.000063   0.003420  -0.030688   0.407517  -0.030561
     9  H   -0.039962   0.394385  -0.021235   0.002748  -0.000332   0.005671
    10  H   -0.034060   0.003213   0.000240   0.001728  -0.019566   0.390410
    11  H    0.000620   0.004759  -0.035829   0.411852  -0.036286   0.004809
    12  C    0.006567   0.001941  -0.000000  -0.000028   0.000116  -0.001173
    13  C   -0.072124  -0.001917   0.001344   0.000061  -0.000770   0.008890
    14  C    0.250743  -0.077874   0.007524  -0.005130   0.008002  -0.086267
    15  C   -0.072892   0.008736  -0.000687   0.000135   0.000636   0.000908
    16  H   -0.000299  -0.000000  -0.000001   0.000000  -0.000000   0.000036
    17  H   -0.003026   0.003679   0.000722  -0.000074  -0.000123   0.000412
    18  H   -0.000579  -0.000358  -0.000165  -0.000023   0.000750  -0.001171
    19  C    0.007892  -0.000020  -0.000018   0.000006  -0.000043   0.000001
    20  C   -0.003525  -0.000740   0.000267  -0.000117  -0.000181   0.010404
    21  C    0.000537  -0.000016   0.000000   0.000000  -0.000000  -0.000023
    22  C   -0.001118   0.000046  -0.000000  -0.000000   0.000001   0.000035
    23  C   -0.000016   0.000001  -0.000000  -0.000000   0.000000   0.000001
    24  C   -0.000000   0.000000   0.000000  -0.000000   0.000000  -0.000000
    25  C   -0.000000  -0.000000  -0.000000   0.000000  -0.000000   0.000000
    26  C    0.000003   0.000000   0.000000  -0.000000  -0.000000   0.000000
    27  H    0.000002   0.000000  -0.000000   0.000000  -0.000000   0.000000
    28  H    0.000000   0.000000   0.000000  -0.000000   0.000000   0.000000
    29  H    0.000000   0.000000  -0.000000  -0.000000  -0.000000  -0.000000
    30  H    0.000000   0.000000  -0.000000   0.000000  -0.000000  -0.000000
    31  C    0.000139  -0.000015   0.000001   0.000001  -0.000011   0.000038
    32  C   -0.000100  -0.000004   0.000000  -0.000000   0.000001  -0.000036
    33  C   -0.004907   0.000089  -0.000000  -0.000003   0.000008   0.000624
    34  C   -0.000088  -0.000000  -0.000000  -0.000000   0.000005   0.000051
    35  C    0.000311  -0.000009   0.000000   0.000000  -0.000011  -0.000623
    36  C   -0.000053   0.000003  -0.000000   0.000000  -0.000001   0.000090
    37  H   -0.000008   0.000000   0.000000   0.000000  -0.000000  -0.000000
    38  H    0.000293  -0.000008  -0.000002   0.000000  -0.000017   0.000130
    39  H    0.000005   0.000003  -0.000000  -0.000000  -0.000000  -0.000006
    40  H    0.000004  -0.000000  -0.000000   0.000000  -0.000000   0.000000
    41  H    0.000001   0.000000   0.000000  -0.000000  -0.000000  -0.000002
    42  H   -0.000055  -0.000001   0.000000   0.000000   0.000000   0.000020
    43  H    0.000001   0.000000  -0.000000  -0.000000   0.000000   0.000001
    44  H    0.000079  -0.000001   0.000001  -0.000003   0.000018   0.000272
    45  H    0.000000  -0.000000   0.000000  -0.000000  -0.000000   0.000010
    46  H    0.000001  -0.000000   0.000000  -0.000000   0.000000  -0.000001
               7          8          9         10         11         12
     1  C    0.005114   0.004439  -0.039962  -0.034060   0.000620   0.006567
     2  C   -0.031617   0.000063   0.394385   0.003213   0.004759   0.001941
     3  C    0.408555   0.003420  -0.021235   0.000240  -0.035829  -0.000000
     4  C   -0.031700  -0.030688   0.002748   0.001728   0.411852  -0.000028
     5  C    0.003710   0.407517  -0.000332  -0.019566  -0.036286   0.000116
     6  C   -0.000116  -0.030561   0.005671   0.390410   0.004809  -0.001173
     7  H    0.509527  -0.000284  -0.003587   0.000066  -0.004118   0.000000
     8  H   -0.000284   0.509261   0.000063  -0.003198  -0.004123  -0.000000
     9  H   -0.003587   0.000063   0.488674  -0.000248  -0.000288   0.000413
    10  H    0.000066  -0.003198  -0.000248   0.483528  -0.000287  -0.000048
    11  H   -0.004118  -0.004123  -0.000288  -0.000287   0.517486  -0.000000
    12  C    0.000000  -0.000000   0.000413  -0.000048  -0.000000   5.184524
    13  C    0.000019   0.000027   0.002134  -0.000220  -0.000001   0.476661
    14  C    0.000026   0.000053   0.007256   0.004410   0.000134  -0.011411
    15  C    0.000030   0.000065   0.000940   0.001751  -0.000017  -0.147763
    16  H    0.000000   0.000000   0.000036   0.000002  -0.000000   0.382586
[...]
 1181,-0.00008706,-0.00003624,0.00000221,-0.00001622,-0.00000501,-0.000
 00163,0.00000075,-0.00000268,-0.00000891,-0.00000815,-0.00000364,-0.00
 002208,0.00001446,-0.00000352,-0.00421301,0.00330179,0.00275661,0.0003
 0880,0.00033584,0.00039863,0.00060526,-0.00128876,0.00027230,-0.003309
 98,0.00000482,-0.00547716,-0.09742631,0.01335423,-0.10161057,-0.013474
 37,0.00355942,-0.02599964,-0.00085794,0.00011761,-0.00157360,0.0000784
 1,0.00014888,-0.00006597,0.00005687,-0.00007213,-0.00002537,-0.0000404
 2,-0.00007419,-0.00000934,-0.00010137,0.00020606,-0.00006332,0.0003315
 2,-0.00018097,0.00029011,0.10670526,0.00000937,-0.00001439,-0.00000435
 ,-0.00000351,0.00001045,-0.00000968,-0.00000229,-0.00000518,0.00000289
 ,0.00000022,-0.00000087,0.00000282,0.00000560,0.00001574,0.00001671,-0
 .00001269,0.00000981,-0.00002163,0.00000055,-0.00000062,-0.00000080,-0
 .00000170,-0.00000343,0.00000136,0.00000276,-0.00000349,0.00000350,0.0
 0004224,0.00001354,-0.00000016,0.00000123,-0.00000178,0.00000251,0.000
 05880,0.00003990,0.00001929,-0.00003383,-0.00000602,-0.00001168,0.0000
 7810,0.00019668,0.00006571,0.00006391,-0.00036322,-0.00000907,0.000004
 61,-0.00000178,-0.00000779,-0.00000079,0.00002216,0.00001026,0.0000442
 9,0.00027235,-0.00002505,-0.00009505,-0.00021756,-0.00009379,-0.000432
 37,-0.00017269,0.00056766,-0.00069096,0.00100536,-0.00114724,0.0000375
 2,-0.00030261,-0.00016446,0.00012983,-0.00007225,0.00001623,-0.0000001
 9,-0.00008002,-0.00009450,0.00007351,0.00001121,0.00010486,-0.00001772
 ,-0.00022088,-0.00004877,-0.00000131,-0.00004295,-0.00002695,-0.000014
 23,0.00000358,-0.00000766,-0.00001854,-0.00002760,-0.00000629,-0.00009
 589,0.00001795,0.00000345,0.00338551,-0.00174002,-0.00181232,0.0003876
 7,-0.00042970,0.00012937,-0.00076381,-0.00598274,-0.00150469,-0.014469
 87,0.00263586,-0.02921686,0.01390320,-0.05035600,0.03022718,0.00736097
 ,-0.00259819,0.01693866,0.00089055,0.00015029,0.00103617,-0.00024159,0
 .00005247,-0.00037148,-0.00005605,0.00014816,0.00003912,-0.00005253,0.
 00008728,0.00002643,-0.00011308,0.00132166,0.00057748,0.00068817,0.001
 09703,0.00036210,-0.01639573,0.05723790,-0.00005349,-0.00009452,0.0000
 0066,0.00002271,0.00003983,0.00000860,0.00000684,0.00000046,0.00000627
 ,0.00001633,0.00003234,-0.00000795,-0.00001052,-0.00001801,-0.00001663
 ,0.00004785,0.00003655,-0.00001178,0.00000283,0.00000701,-0.00000403,0
 .00000872,0.00001856,0.00000148,-0.00000178,-0.00000680,0.00001154,-0.
 00006594,-0.00002149,-0.00000961,0.00000128,0.00000631,-0.00000266,-0.
 00000135,-0.00002766,-0.00002492,0.00007268,0.00002833,-0.00005127,-0.
 00005740,-0.00017892,-0.00003932,-0.00000969,0.00044322,-0.00001362,-0
 .00000067,-0.00000553,-0.00001616,0.00000343,-0.00001420,-0.00003175,-
 0.00004618,-0.00028463,-0.00006203,-0.00001066,-0.00002701,0.00000118,
 0.00000267,-0.00003411,0.00052763,-0.00043304,0.00043234,-0.00059586,-
 0.00006055,-0.00020945,-0.00006463,0.00006925,-0.00001616,0.00000844,-
 0.00002124,-0.00005636,-0.00001370,0.00003485,-0.00004169,0.00002674,0
 .00001949,-0.00008920,-0.00008577,-0.00000066,-0.00002087,-0.00002051,
 -0.00001182,-0.00000677,-0.00000736,-0.00001457,-0.00002611,-0.0000040
 4,-0.00004026,0.00002444,-0.00000439,0.00072372,-0.00044798,0.00088732
 ,0.00039076,-0.00000935,0.00025524,0.00026068,-0.00282938,0.00090096,-
 0.00496613,0.00170072,-0.01147187,-0.10334797,0.02954077,-0.25783915,0
 .00328501,-0.00063065,0.00524994,0.00011659,-0.00017126,0.00013012,0.0
 0015308,-0.00012268,0.00020351,0.00000952,0.00006668,-0.00001767,-0.00
 005507,0.00001227,0.00000110,-0.00010026,-0.00005939,0.00088562,0.0004
 1073,-0.00009766,-0.00007103,0.11243588,-0.02990524,0.27759287,0.00005
 789,0.00007189,-0.00002398,-0.00002821,-0.00002545,-0.00001543,-0.0000
 0171,-0.00001018,-0.00000143,-0.00000327,-0.00000658,0.00001550,-0.000
 00964,0.00002988,-0.00002436,-0.00001186,-0.00002731,0.00010298,-0.000
 00281,-0.00000572,0.00000524,0.00000443,-0.00000924,-0.00000292,0.0000
 0314,0.00000628,-0.00000483,0.00010485,0.00004072,-0.00011962,0.000000
 35,-0.00000593,-0.00000115,0.00003488,0.00008403,0.00005241,-0.0001347
 3,-0.00002444,0.00004380,0.00011354,0.00042731,0.00026067,0.00003137,-
 0.00124505,0.00016146,0.00000765,0.00000371,0.00001302,-0.00000989,0.0
 0004339,0.00004152,0.00052866,0.00065965,-0.00007430,-0.00005434,-0.00
 002943,-0.00004322,-0.00008207,0.00015212,-0.00033842,0.00009554,0.000
 08688,-0.00019112,-0.00005986,0.00001130,0.00009656,0.00000212,-0.0000
 4869,-0.00002933,0.00004013,-0.00000112,-0.00007534,0.00001823,0.00011
 573,0.00001459,-0.00005668,-0.00003901,0.00002570,-0.00000119,-0.00001
 515,-0.00000396,0.00000866,0.00000317,-0.00000383,0.00000105,0.0000049
 6,0.00000236,0.00004894,0.00001481,-0.00000863,0.00116600,-0.00107929,
 0.00089520,-0.00016471,0.00005447,-0.00025826,-0.00019958,-0.00025419,
 0.00088297,-0.00393048,-0.00324025,0.00284302,-0.15444027,-0.08386109,
 0.09531525,-0.01934443,-0.01363413,0.01742079,0.00038853,0.00025558,-0
 .00011945,-0.00006591,0.00033171,-0.00077100,-0.00005008,-0.00004091,-
 0.00007717,0.00014253,0.00014500,0.00001394,0.00091374,-0.00077091,-0.
 00036845,0.00049245,0.00002650,-0.00042549,0.00950713,0.00749917,-0.00
 779212,0.16794586,0.00006100,0.00003920,0.00000498,-0.00002649,-0.0000
 0506,-0.00000653,0.00000189,-0.00000835,-0.00000262,-0.00001537,-0.000
 01066,0.00000735,0.00000951,-0.00000882,0.00000839,0.00007149,-0.00005
 208,-0.00001704,-0.00000139,-0.00000459,0.00000334,-0.00000703,-0.0000
 0339,-0.00000173,-0.00000142,0.00000539,-0.00000149,-0.00000261,0.0001
 4228,-0.00009191,-0.00000269,-0.00000278,0.00000209,-0.00006837,-0.000
 02860,0.00013945,-0.00003745,0.00016910,0.00007630,0.00027781,0.000242
 84,-0.00012234,0.00004234,-0.00064675,0.00059103,-0.00000145,-0.000000
 22,0.00000438,-0.00000603,0.00003292,0.00002387,0.00012357,0.00083271,
 0.00157597,0.00004798,-0.00027293,-0.00017826,-0.00041324,0.00007750,-
 0.00038112,0.00030102,0.00014887,-0.00012955,-0.00011388,0.00004075,0.
 00009906,-0.00001853,-0.00011303,-0.00004548,0.00008692,-0.00001987,-0
 .00014565,0.00001630,0.00024492,0.00000490,-0.00018428,-0.00011191,0.0
 0003754,0.00000423,-0.00002247,-0.00000976,0.00001653,-0.00000531,-0.0
 0001207,-0.00000388,0.00000020,0.00000404,0.00020084,0.00002795,-0.000
 04877,-0.00075579,0.00055650,-0.00053314,-0.00004633,-0.00011218,-0.00
 015713,0.00037599,0.00076608,0.00073365,-0.01951343,-0.01736559,0.0189
 3361,-0.08399657,-0.11240059,0.07635901,0.01298111,0.00918383,-0.01179
 589,-0.00022749,-0.00006471,-0.00013731,-0.00035948,-0.00010019,0.0001
 8885,-0.00008827,0.00008689,0.00001496,0.00010200,-0.00009275,-0.00003
 402,-0.00122566,-0.00501993,-0.00323161,0.00054492,0.00090444,0.000322
 93,-0.00214955,-0.00243420,0.00241333,0.09082820,0.12572406,0.00002466
 ,0.00008234,-0.00001085,-0.00001303,-0.00003719,-0.00002225,-0.0000099
 1,-0.00000273,-0.00000982,-0.00001170,-0.00003975,0.00000664,0.0000206
 5,0.00001422,0.00002757,-0.00010859,-0.00007254,-0.00002358,-0.0000039
 3,-0.00000488,-0.00000041,-0.00002288,-0.00002440,0.00000566,-0.000001
 64,0.00000643,-0.00001324,0.00001786,-0.00001309,0.00018519,-0.0000019
 7,-0.00000114,0.00000253,-0.00011980,-0.00008056,0.00012627,0.00008445
 ,0.00016775,0.00012197,0.00021230,-0.00011993,-0.00043921,0.00015317,0
 .00086447,-0.00198532,-0.00001711,0.00000350,0.00001379,-0.00000075,0.
 00000531,0.00000342,-0.00062080,0.00048115,-0.00363341,0.00009170,-0.0
 0010784,-0.00018784,-0.00010388,0.00006154,0.00070502,0.00014640,-0.00
 010313,0.00000684,-0.00004448,0.00006000,0.00008750,-0.00001536,-0.000
 03379,-0.00003305,0.00004113,0.00002177,-0.00003561,-0.00001401,0.0000
 8627,0.00000059,-0.00008646,-0.00003908,-0.00001419,0.00000287,-0.0000
 0159,0.00000749,0.00001029,0.00000245,-0.00000078,0.00000203,0.0000073
 5,0.00000050,0.00007295,0.00000384,-0.00001148,-0.00054763,-0.00042201
 ,0.00066933,-0.00001597,-0.00004795,-0.00004337,-0.00010022,0.00042312
 ,0.00065411,-0.00931492,-0.00698925,0.00864599,0.09685963,0.07748544,-
 0.13694755,0.00250658,0.00105741,-0.00292559,0.00002957,-0.00005467,0.
 00000845,0.00027151,0.00011856,0.00039487,0.00000042,0.00002386,0.0000
 0576,0.00004961,-0.00001674,-0.00002284,-0.00105252,-0.00294104,-0.000
 09719,0.00028224,0.00084861,0.00044117,0.01848118,0.01448797,-0.017053
 59,-0.10759545,-0.08401738,0.15034081,0.00000541,0.00000949,-0.0000026
 8,-0.00000299,-0.00000128,-0.00000328,-0.00000078,0.00000097,-0.000003
 78,-0.00000235,-0.00000239,-0.00000007,0.00000277,-0.00000052,-0.00000
 403,0.00000842,-0.00001971,0.00001301,-0.00000011,0.00000011,-0.000002
 40,-0.00000548,-0.00000432,0.00000358,-0.00000133,0.,-0.00000160,-0.00
 001176,0.00001799,0.00000346,0.00000134,0.00000207,-0.00000129,-0.0000
 0737,0.00000359,-0.00001010,0.00000088,-0.00000133,-0.00000422,-0.0000
 1078,-0.00001681,-0.00000351,0.00001283,0.00003136,0.00003910,-0.00000
 420,-0.00000006,-0.00000278,0.00000097,-0.00000156,-0.00000200,-0.0000
 1366,-0.00000481,0.00000112,0.00000043,0.00000112,0.00000500,0.0000986
 6,-0.00004790,0.00000497,0.00017759,-0.00011800,0.00011554,0.00001316,
 0.00000350,-0.00000478,-0.00002289,0.00000506,-0.00001277,0.00000008,-
 0.00000045,0.00000034,0.00000538,0.00000151,-0.00001098,0.00001939,-0.
 00002806,0.00004930,-0.00000182,0.00000283,-0.00000169,0.,-0.00000164,
 -0.00000229,-0.00000341,0.00000273,-0.00000028,-0.00001218,0.00002895,
 -0.00001082,-0.00394261,-0.01562908,-0.00495416,-0.00148603,0.00148823
 ,-0.00350083,-0.00028298,0.00007710,-0.00022097,-0.00579856,0.00200732
 ,0.00017328,0.00643278,0.02805725,0.01120918,-0.05889645,-0.05145901,-
 0.01933999,-0.00004468,-0.00023514,0.00057935,0.00066675,0.00047842,0.
 00035429,0.00009450,-0.00105739,-0.00073856,0.00019670,0.00049800,0.00
 017227,0.00006853,0.00009696,-0.00017700,0.00032250,0.00166430,0.00073
 839,0.00107286,-0.00064232,-0.00050450,0.00118608,-0.00084975,0.000166
 87,0.06449428,-0.00003407,-0.00006541,0.00000214,0.00001280,0.00002696
 ,0.00000191,0.00000278,-0.00000180,0.00000737,0.00001091,0.00002450,-0
 .00000369,-0.00001476,-0.00000080,-0.00000605,0.00000817,0.00003682,-0
 .00000750,0.00000297,0.00000327,-0.00000249,0.00001428,0.00000795,0.00
 000019,0.00000122,-0.00000599,0.00000995,0.00000149,-0.00002963,-0.000
 00913,0.00000344,0.00000229,-0.00000195,0.00001045,0.00000109,0.000000
 23,0.00001444,0.00001677,-0.00002801,-0.00001582,-0.00001996,0.0000190
 0,0.00002295,-0.00001191,-0.00005661,0.00000567,-0.00000271,-0.0000067
 1,0.00000559,-0.00000120,-0.00000729,0.00000005,-0.00006568,-0.0000459
 6,0.00001451,0.00000243,-0.00002158,-0.00015028,-0.00005510,0.00011545
 ,-0.00005542,0.00021400,0.00003047,-0.00000720,-0.00000249,0.00000123,
 0.00000560,-0.00001621,0.00000316,0.00000588,-0.00002203,-0.00002873,0
 .00001799,0.00003674,-0.00000093,-0.00004755,-0.00004574,-0.00000011,0
 .00000330,-0.00000702,-0.00000841,0.00000057,-0.00000727,-0.00000622,-
 0.00000414,-0.00001054,0.00000259,0.00003244,0.00002600,-0.00001108,0.
 00099771,0.00469025,0.00239126,0.00031616,0.00090449,0.00059731,0.0000
 9782,0.00020970,0.00035108,0.00441691,-0.00034061,0.00012676,-0.004225
 93,-0.01480616,-0.00517996,-0.05070632,-0.26720700,-0.08727200,-0.0004
 6553,0.00026280,-0.00049687,-0.00010325,0.00047518,-0.00055559,0.00019
 125,0.00010511,0.00011145,0.00016770,0.00020688,0.00006348,0.00004465,
 0.00047314,0.00011295,-0.00027317,-0.00095713,-0.00076485,-0.00006544,
 0.00003732,0.00050966,0.00011602,0.00087021,-0.00022961,0.05265045,0.2
 8860636,-0.00003373,-0.00005988,0.00000090,0.00000833,0.00002002,-0.00
 000225,0.00000124,-0.00000280,0.00000840,0.00000751,0.00002295,-0.0000
 0315,-0.00001012,0.00001453,0.00000905,-0.00001273,0.00004474,-0.00001
 582,0.00000290,0.00000104,-0.00000005,0.00001816,0.00000534,-0.0000010
 5,0.00000229,-0.00000462,0.00000995,0.00002678,-0.00003232,-0.00000420
 ,0.00000367,-0.00000167,0.00000030,-0.00000476,0.00000804,0.00000271,0
 .00000926,0.00001354,-0.00001411,-0.00000614,0.00001894,0.00001182,0.0
 0003451,-0.00007734,-0.00009404,0.00000156,0.00000223,-0.00000607,0.00
 000377,0.00000151,-0.00000169,-0.00000048,-0.00004068,-0.00004775,0.00
 001527,-0.00000322,-0.00002312,-0.00007478,-0.00005942,0.00021086,0.00
 016412,0.00014036,0.00012024,-0.00001400,-0.00001478,0.00001708,-0.000
 01181,0.00000425,-0.00000738,0.00000524,-0.00001698,-0.00002259,0.0000
 0165,0.00002697,0.00001702,0.00003341,-0.00003505,-0.00002657,-0.00000
 123,-0.00000738,-0.00000770,-0.00000054,-0.00000243,-0.00000142,-0.000
 00576,-0.00000927,-0.00000230,-0.00000825,-0.00000554,-0.00002091,-0.0
 0613895,-0.02755895,-0.01118990,-0.00295047,0.00268489,-0.00479918,-0.
 00020185,0.00037818,0.00021792,0.00061941,0.00024191,0.00062483,-0.000
 11086,-0.00289051,-0.00193819,-0.01875539,-0.08598777,-0.08213320,0.00
 008705,0.00031238,0.00107182,0.00095767,-0.00000448,0.00083069,-0.0003
 4229,-0.00168660,-0.00061733,-0.00017297,-0.00010622,0.00014365,-0.000
 14375,-0.00038631,0.00000781,-0.00020388,-0.00016395,0.00022985,0.0002
 6265,0.00029236,0.00022386,-0.00015704,-0.00011369,-0.00006985,0.02314
 437,0.09525011,0.08916492,-0.00000096,-0.00001779,0.00001709,0.0000036
 3,-0.00000157,0.00000449,0.00000071,-0.00000454,0.00000972,-0.00000215
 ,-0.00000391,-0.00000011,0.00000464,0.00000046,0.00003043,-0.00001048,
 0.00003500,-0.00006913,-0.00000054,-0.00000158,0.00000419,0.00000411,0
 .00000571,-0.00000451,-0.00000042,0.00000168,0.00000687,0.00003516,0.0
 0000894,-0.00001468,-0.00000154,-0.00000458,0.00000468,-0.00000263,0.0
 0000190,0.00002338,-0.00002442,0.00002991,0.00000308,0.00007447,0.0000
 2930,0.00001433,0.00014045,-0.00021226,0.00008534,0.00000007,0.0000025
 8,0.00000361,-0.00000742,0.00000812,0.00000288,-0.00013038,0.00013477,
 -0.00010237,0.00000895,-0.00002517,-0.00002769,-0.00006465,-0.00000267
 ,-0.00003339,0.00005099,-0.00004488,0.00005361,-0.00000439,0.00002144,
 0.00002292,-0.00000344,-0.00000173,-0.00001153,0.00000725,0.00000388,-
 0.00000814,0.00001369,0.00002267,-0.00001752,-0.00003079,0.00000099,0.
 00005906,-0.00000167,0.00000034,-0.00000031,0.00000268,0.00000204,-0.0
 0000223,0.00000444,0.00000696,0.00000310,0.00002050,0.00002735,0.00001
 242,0.00957105,0.00834862,-0.01280538,0.00067044,0.00071285,0.00033801
 ,-0.00009145,0.00016256,-0.00003704,0.00098567,-0.00149522,-0.00037523
 ,-0.02066404,-0.01328364,0.01972235,-0.13347611,-0.07059656,0.09900237
 ,0.00094112,0.00012836,0.00073967,-0.00090853,0.00005810,-0.00369716,-
 0.00002208,0.00018646,0.00016787,-0.00012035,-0.00002626,0.00041375,0.
 00053313,0.00093753,0.00000155,0.00020542,0.00006019,-0.00048668,0.000
 76058,-0.00051174,-0.00048901,-0.00419202,0.00402275,0.00029492,-0.004
 32984,-0.00302726,0.00395093,0.15005116,-0.00000155,0.00001079,-0.0000
 0686,-0.00000449,-0.00000670,-0.00000158,-0.00000124,0.00000137,-0.000
 00157,-0.00000031,0.00000312,0.00000080,-0.00000440,0.00000955,-0.0000
 0274,-0.00001630,0.00000059,0.00002049,0.00000053,-0.00000172,0.000002
 24,0.00000687,-0.00000168,-0.00000189,0.00000217,0.00000110,-0.0000028
 3,0.00000778,-0.00002339,0.00001040,0.00000033,-0.00000266,-0.00000053
 ,-0.00000025,0.00000571,-0.00000132,0.00000224,-0.00001135,0.00001815,
 -0.00001949,0.00002814,-0.00000476,-0.00012492,-0.00002550,-0.00003304
 ,-0.00000223,0.00000286,0.00000445,0.00000083,-0.00000085,0.00000552,0
 .00007782,-0.00006032,0.00001055,-0.00001099,-0.00000161,0.00001413,0.
 00005249,0.00001630,-0.00001331,-0.00007106,-0.00006578,-0.00000989,0.
 00000583,0.00000967,-0.00000166,0.00000455,0.00000724,0.00000482,-0.00
 000178,0.00001256,0.00001277,-0.00000549,-0.00001710,0.00000099,0.0000
 1582,0.00002599,-0.00000907,-0.00000019,0.00000328,0.00000479,-0.00000
 007,0.00000439,0.00000323,0.00000293,0.00000802,-0.00000097,-0.0000216
 5,0.00000740,0.00003195,-0.00165524,-0.00277269,0.00289027,0.00051216,
 0.00060820,-0.00092088,0.00004314,-0.00007330,0.00001232,0.00045297,0.
 00158523,-0.00056186,0.01124979,0.00739587,-0.01223348,-0.07102155,-0.
 10527484,0.07760752,0.00009090,-0.00008706,0.00019809,0.00090073,0.001
 04141,0.00035204,0.00009892,0.00004499,-0.00000441,-0.00005182,0.00044
 538,0.00010457,-0.00016536,-0.00010214,0.00038889,-0.00009569,0.000146
 84,0.00023537,-0.00090639,0.00069147,0.00014024,0.00336158,-0.00118966
 ,-0.00091305,-0.01700783,-0.01355787,0.01978755,0.07429992,0.11115877,
 -0.00000121,-0.00000215,0.00000302,0.00000563,-0.00000314,0.00000972,0
 .00000332,0.00000254,0.00000120,-0.00000024,0.00000055,-0.00000507,-0.
 00000244,-0.00001383,-0.00000644,0.00001367,-0.00000391,0.00000002,-0.
 00000062,0.00000213,-0.00000155,-0.00000062,0.00000183,0.00000156,-0.0
 0000332,0.00000117,0.00000125,-0.00001648,0.00000328,-0.00000547,-0.00
 000009,0.00000318,-0.00000126,0.00001574,-0.00000877,-0.00002863,-0.00
 000923,-0.00001929,-0.00002817,-0.00002682,-0.00010610,0.00004307,0.00
 015272,0.00016160,0.00012432,0.00000100,-0.00000284,-0.00000149,-0.000
 00402,-0.00000893,-0.00001241,-0.00015644,-0.00011355,-0.00004965,-0.0
 0001677,0.00003415,0.00005786,0.00000893,0.00008604,-0.00002789,0.0000
 3532,-0.00005128,-0.00000201,0.00000967,-0.00003141,-0.00004322,-0.000
 00638,0.00001533,0.00001488,-0.00001217,0.00000185,0.00002364,-0.00003
 931,-0.00004650,0.00002575,0.00007070,0.00001569,-0.00010951,-0.000000
 94,0.00000327,0.00000203,-0.00000389,-0.00000045,0.00000693,-0.0000003
 1,-0.00000848,-0.00000330,-0.00002672,-0.00005392,0.00001801,0.0163551
 5,0.01499360,-0.02238945,0.00134891,0.00104255,0.00108901,-0.00013667,
 -0.00019850,-0.00011061,-0.00000107,0.00050029,-0.00020219,0.00225806,
 0.00151483,-0.00226108,0.09867028,0.07687251,-0.15841200,-0.00007324,-
 0.00002419,0.00126084,-0.00363662,0.00001692,-0.00440891,-0.00036124,-
 0.00004384,0.00048109,-0.00049547,-0.00096405,0.00001988,0.00001394,-0
 .00054215,-0.00012636,-0.00015403,-0.00015506,0.00015917,-0.00003341,-
 0.00044360,0.00061825,0.00031932,-0.00033453,0.00111959,-0.00725206,-0
 .00495639,0.00812617,-0.10681051,-0.08713639,0.17502943\\-0.00000700,-
 0.00000880,-0.00000478,0.00000441,-0.00000300,-0.00000056,0.00000148,0
 .00000427,-0.00000131,-0.00000273,-0.00000454,-0.00000318,0.00000158,0
 .00000321,-0.00000183,0.00000011,0.00000550,0.00000041,-0.00000107,-0.
 00000201,0.00000035,-0.00000098,-0.00000113,-0.00000517,-0.00000062,0.
 00000347,0.00000112,0.00000314,0.00000200,-0.00000597,-0.00000095,-0.0
 0000185,-0.00000341,0.00001408,0.00000539,-0.00000842,-0.00000756,-0.0
 0002824,-0.00001514,0.00000209,0.00001798,0.00001772,-0.00000444,-0.00
 000385,-0.00000476,-0.00000313,-0.00000198,0.00000355,-0.00000326,-0.0
 0000128,0.00000528,-0.00001608,0.00000565,-0.00000483,-0.00001107,0.00
 001633,0.00001583,-0.00001187,-0.00001517,-0.00000152,-0.00001813,0.00
 000674,0.00000419,0.00000936,0.00000673,0.00000304,-0.00000319,-0.0000
 0779,0.00000032,0.00000651,0.00000175,-0.00000584,-0.00000213,0.000005
 37,0.00001071,-0.00000283,0.00000489,0.00000630,-0.00000151,0.00000052
 ,0.00000310,0.00000011,0.00000133,0.00000397,0.00000349,0.00000139,0.0
 0000041,0.00000267,-0.00000226,-0.00000098,0.00000413,-0.00001769,-0.0
 0000902,-0.00000380,0.00000156,0.00000652,0.00002852,-0.00000362,-0.00
 000438,-0.00000193,0.00000432,-0.00000873,-0.00000421,-0.00001012,0.00
 000672,0.00000125,0.00000526,0.00000051,0.00000148,-0.00000446,-0.0000
 0365,0.00001590,0.00000337,-0.00001042,0.00000187,0.00000193,0.0000017
 5,0.00000027,0.00000038,-0.00000246,0.00000649,0.00000207,0.00000381,0
 .00000060,0.00000130,0.00000220,-0.00000130,0.00000143,-0.00000356,-0.
 00000203,-0.00000310,0.00001179,-0.00000122,0.00000194,-0.00000093,0.0
 0000350,0.00000480,0.00000124\\\@
 The archive entry for this job was punched.


 Until you make peace with who you are,
 you'll never be content with what you have.
                           -- Doris Mortman
 Job cpu time:       6 days 18 hours  0 minutes 18.7 seconds.
 Elapsed time:       0 days  5 hours  7 minutes 46.2 seconds.
 File lengths (MBytes):  RWF=   4461 Int=      0 D2E=      0 Chk=     62 Scr=      1
 Normal termination of Gaussian 16 at Fri Nov  3 22:36:23 2023.
