 Entering Gaussian System, Link 0=g16
 Input=ph_fluorene_cp_methyl_idp_8_1_m062x.com
 Output=ph_fluorene_cp_methyl_idp_8_1_m062x.log
 Initial command:
 /arc/software/Gaussian/g16.c01/l1.exe "/tmp/Gau-124918.inp" -scrdir="/tmp/"
 Entering Link 1 = /arc/software/Gaussian/g16.c01/l1.exe PID=    124919.
  
 Copyright (c) 1988-2019, Gaussian, Inc.  All Rights Reserved.
  
 This is part of the Gaussian(R) 16 program.  It is based on
 the Gaussian(R) 09 system (copyright 2009, Gaussian, Inc.),
 the Gaussian(R) 03 system (copyright 2003, Gaussian, Inc.),
 the Gaussian(R) 98 system (copyright 1998, Gaussian, Inc.),
 the Gaussian(R) 94 system (copyright 1995, Gaussian, Inc.),
 the Gaussian 92(TM) system (copyright 1992, Gaussian, Inc.),
 the Gaussian 90(TM) system (copyright 1990, Gaussian, Inc.),
 the Gaussian 88(TM) system (copyright 1988, Gaussian, Inc.),
 the Gaussian 86(TM) system (copyright 1986, Carnegie Mellon
 University), and the Gaussian 82(TM) system (copyright 1983,
 Carnegie Mellon University). Gaussian is a federally registered
 trademark of Gaussian, Inc.
  
 This software contains proprietary and confidential information,
 including trade secrets, belonging to Gaussian, Inc.
  
 This software is provided under written license and may be
 used, copied, transmitted, or stored only in accord with that
 written license.
  
 The following legend is applicable only to US Government
 contracts under FAR:
  
                    RESTRICTED RIGHTS LEGEND
  
 Use, reproduction and disclosure by the US Government is
 subject to restrictions as set forth in subparagraphs (a)
 and (c) of the Commercial Computer Software - Restricted
 Rights clause in FAR 52.227-19.
  
 Gaussian, Inc.
 340 Quinnipiac St., Bldg. 40, Wallingford CT 06492
  
  
 ---------------------------------------------------------------
 Warning -- This program may not be used in any manner that
 competes with the business of Gaussian, Inc. or will provide
 assistance to any competitor of Gaussian, Inc.  The licensee
 of this program is prohibited from giving any competitor of
 Gaussian, Inc. access to this program.  By using this program,
 the user acknowledges that Gaussian, Inc. is engaged in the
 business of creating and licensing software in the field of
 computational chemistry and represents and warrants to the
 licensee that it is not a competitor of Gaussian, Inc. and that
 it will not use this program in any manner prohibited above.
 ---------------------------------------------------------------
  

 Cite this work as:
 Gaussian 16, Revision C.01,
 M. J. Frisch, G. W. Trucks, H. B. Schlegel, G. E. Scuseria, 
 M. A. Robb, J. R. Cheeseman, G. Scalmani, V. Barone, 
 G. A. Petersson, H. Nakatsuji, X. Li, M. Caricato, A. V. Marenich, 
 J. Bloino, B. G. Janesko, R. Gomperts, B. Mennucci, H. P. Hratchian, 
 J. V. Ortiz, A. F. Izmaylov, J. L. Sonnenberg, D. Williams-Young, 
 F. Ding, F. Lipparini, F. Egidi, J. Goings, B. Peng, A. Petrone, 
 T. Henderson, D. Ranasinghe, V. G. Zakrzewski, J. Gao, N. Rega, 
 G. Zheng, W. Liang, M. Hada, M. Ehara, K. Toyota, R. Fukuda, 
 J. Hasegawa, M. Ishida, T. Nakajima, Y. Honda, O. Kitao, H. Nakai, 
 T. Vreven, K. Throssell, J. A. Montgomery, Jr., J. E. Peralta, 
 F. Ogliaro, M. J. Bearpark, J. J. Heyd, E. N. Brothers, K. N. Kudin, 
 V. N. Staroverov, T. A. Keith, R. Kobayashi, J. Normand, 
 K. Raghavachari, A. P. Rendell, J. C. Burant, S. S. Iyengar, 
 J. Tomasi, M. Cossi, J. M. Millam, M. Klene, C. Adamo, R. Cammi, 
 J. W. Ochterski, R. L. Martin, K. Morokuma, O. Farkas, 
 J. B. Foresman, and D. J. Fox, Gaussian, Inc., Wallingford CT, 2019.
 
 ******************************************
 Gaussian 16:  ES64L-G16RevC.01  3-Jul-2019
                 1-Nov-2023 
 ******************************************
 %nprocshared=32
 Will use up to   32 processors via shared memory.
 %mem=8000MB
 %chk=ph_fluorene_cp_methyl_idp_8_1_m062x.chk
 -----------------------------------------
 # opt freq=noraman m062x def2tzvp pop=nbo
 -----------------------------------------
 1/18=20,19=15,26=3,38=1/1,3;
 2/9=110,12=2,17=6,18=5,40=1/2;
 3/5=44,7=101,11=2,25=1,30=1,71=1,74=-55/1,2,3;
 4//1;
 5/5=2,38=5/2;
 6/7=2,8=2,9=2,10=2,28=1,40=1/1,7;
 7//1,2,3,16;
 1/18=20,19=15,26=3/3(2);
 2/9=110/2;
 99//99;
 2/9=110/2;
 3/5=44,7=101,11=2,25=1,30=1,71=1,74=-55/1,2,3;
 4/5=5,16=3,69=1/1;
 5/5=2,38=5/2;
 7//1,2,3,16;
 1/18=20,19=15,26=3/3(-5);
 2/9=110/2;
 6/7=2,8=2,9=2,10=2,19=2,28=1,40=1/1,7;
 99/9=1/99;
 ------------
 Structure697
 ------------
 Symbolic Z-matrix:
 Charge =  0 Multiplicity = 1
 C                     2.6152   -9.2623    2.5655 
 C                     1.0658   -6.1329    4.095 
 C                     1.9577   -6.9847    3.4416 
 C                     1.6531   -8.3403    3.2898 
 C                     0.4462   -8.8382    3.7898 
 H                     1.3118   -5.0879    4.2067 
 H                     2.8848   -6.5873    3.0553 
 H                     0.2064   -9.8839    3.6677 
 C                    -0.1347   -6.6398    4.5946 
 C                    -0.4499   -7.9894    4.4479 
 C                    -2.212    -6.9374    5.584 
 C                    -1.2376   -5.9829    5.3072 
 C                    -1.4141   -4.6581    5.7028 
 C                    -2.5751   -4.2896    6.3833 
 C                    -3.5723   -5.2313    6.6771 
 C                    -3.3712   -6.5579    6.2678 
 H                    -0.6635   -3.9132    5.4867 
 H                    -2.7039   -3.257     6.6716 
 H                    -4.1169   -7.3039    6.4961 
 C                    -2.9265   -10.3247   5.9828 
 C                    -1.7323   -9.389     6.1818 
 C                    -1.8064   -8.3136    5.0655 
 C                    -2.8203   -8.9093    4.0504 
 C                    -3.0892   -10.3578   4.4688 
 H                    -0.8112   -9.9675    6.0931 
 H                    -1.7181   -8.9529    7.1821 
 H                    -3.758    -8.3515    4.0743 
 H                    -2.4636   -8.8481    3.021 
 H                    -3.8188   -9.9084    6.4544 
 H                    -2.7577   -11.3151   6.4083 
 H                    -2.3487   -11.0243   4.0221 
 H                    -4.0763   -10.7061   4.1611 
 C                    -7.1399   -4.088     8.7703 
 C                    -7.2123   -5.0195    7.7384 
 C                    -6.0528   -5.3893    7.0611 
 C                    -4.8132   -4.8334    7.4052 
 C                    -4.7619   -3.8968    8.4464 
 C                    -5.9182   -3.5246    9.1279 
 H                    -8.0383   -3.8001    9.2974 
 H                    -8.1632   -5.4514    7.4616 
 H                    -6.1231   -6.1026    6.2531 
 H                    -3.8175   -3.4634    8.7413 
 H                    -5.8658   -2.8047    9.9318 
 H                     2.0736   -10.0347   2.0183 
 H                     3.206    -8.7154    1.8299 
 H                     3.2893   -9.7442    3.2738 
 

 GradGradGradGradGradGradGradGradGradGradGradGradGradGradGradGradGradGrad
 Berny optimization.
 Initialization pass.
                           ----------------------------
                           !    Initial Parameters    !
                           ! (Angstroms and Degrees)  !
 --------------------------                            --------------------------
 ! Name  Definition              Value          Derivative Info.                !
 --------------------------------------------------------------------------------
 ! R1    R(1,4)                  1.5167         estimate D2E/DX2                !
 ! R2    R(1,44)                 1.0906         estimate D2E/DX2                !
 ! R3    R(1,45)                 1.0905         estimate D2E/DX2                !
 ! R4    R(1,46)                 1.0901         estimate D2E/DX2                !
 ! R5    R(2,3)                  1.3957         estimate D2E/DX2                !
 ! R6    R(2,6)                  1.0794         estimate D2E/DX2                !
 ! R7    R(2,9)                  1.3956         estimate D2E/DX2                !
 ! R8    R(3,4)                  1.3977         estimate D2E/DX2                !
 ! R9    R(3,7)                  1.0801         estimate D2E/DX2                !
 ! R10   R(4,5)                  1.398          estimate D2E/DX2                !
 ! R11   R(5,8)                  1.0798         estimate D2E/DX2                !
 ! R12   R(5,10)                 1.3988         estimate D2E/DX2                !
 ! R13   R(9,10)                 1.3937         estimate D2E/DX2                !
 ! R14   R(9,12)                 1.4682         estimate D2E/DX2                !
 ! R15   R(10,22)                1.5253         estimate D2E/DX2                !
 ! R16   R(11,12)                1.3918         estimate D2E/DX2                !
 ! R17   R(11,16)                1.3983         estimate D2E/DX2                !
 ! R18   R(11,22)                1.5255         estimate D2E/DX2                !
 ! R19   R(12,13)                1.3938         estimate D2E/DX2                !
 ! R20   R(13,14)                1.3953         estimate D2E/DX2                !
 ! R21   R(13,17)                1.0793         estimate D2E/DX2                !
 ! R22   R(14,15)                1.4027         estimate D2E/DX2                !
 ! R23   R(14,18)                1.0798         estimate D2E/DX2                !
 ! R24   R(15,16)                1.4028         estimate D2E/DX2                !
 ! R25   R(15,36)                1.4927         estimate D2E/DX2                !
 ! R26   R(16,19)                1.0792         estimate D2E/DX2                !
 ! R27   R(20,21)                1.5301         estimate D2E/DX2                !
 ! R28   R(20,24)                1.5231         estimate D2E/DX2                !
 ! R29   R(20,29)                1.0917         estimate D2E/DX2                !
 ! R30   R(20,30)                1.0911         estimate D2E/DX2                !
 ! R31   R(21,22)                1.5518         estimate D2E/DX2                !
 ! R32   R(21,25)                1.0913         estimate D2E/DX2                !
 ! R33   R(21,26)                1.0913         estimate D2E/DX2                !
 ! R34   R(22,23)                1.5535         estimate D2E/DX2                !
 ! R35   R(23,24)                1.5315         estimate D2E/DX2                !
 ! R36   R(23,27)                1.0913         estimate D2E/DX2                !
 ! R37   R(23,28)                1.0912         estimate D2E/DX2                !
 ! R38   R(24,31)                1.0918         estimate D2E/DX2                !
 ! R39   R(24,32)                1.091          estimate D2E/DX2                !
 ! R40   R(33,34)                1.392          estimate D2E/DX2                !
 ! R41   R(33,38)                1.3921         estimate D2E/DX2                !
 ! R42   R(33,39)                1.0807         estimate D2E/DX2                !
 ! R43   R(34,35)                1.3928         estimate D2E/DX2                !
 ! R44   R(34,40)                1.0804         estimate D2E/DX2                !
 ! R45   R(35,36)                1.4014         estimate D2E/DX2                !
 ! R46   R(35,41)                1.0801         estimate D2E/DX2                !
 ! R47   R(36,37)                1.4014         estimate D2E/DX2                !
 ! R48   R(37,38)                1.3928         estimate D2E/DX2                !
 ! R49   R(37,42)                1.0801         estimate D2E/DX2                !
 ! R50   R(38,43)                1.0804         estimate D2E/DX2                !
 ! A1    A(4,1,44)             110.8018         estimate D2E/DX2                !
 ! A2    A(4,1,45)             111.1569         estimate D2E/DX2                !
 ! A3    A(4,1,46)             110.5307         estimate D2E/DX2                !
 ! A4    A(44,1,45)            106.6056         estimate D2E/DX2                !
 ! A5    A(44,1,46)            108.6642         estimate D2E/DX2                !
 ! A6    A(45,1,46)            108.9636         estimate D2E/DX2                !
 ! A7    A(3,2,6)              119.5826         estimate D2E/DX2                !
 ! A8    A(3,2,9)              119.7102         estimate D2E/DX2                !
 ! A9    A(6,2,9)              120.7071         estimate D2E/DX2                !
 ! A10   A(2,3,4)              120.2326         estimate D2E/DX2                !
 ! A11   A(2,3,7)              119.4319         estimate D2E/DX2                !
 ! A12   A(4,3,7)              120.3355         estimate D2E/DX2                !
 ! A13   A(1,4,3)              120.2139         estimate D2E/DX2                !
 ! A14   A(1,4,5)              120.1265         estimate D2E/DX2                !
 ! A15   A(3,4,5)              119.6511         estimate D2E/DX2                !
 ! A16   A(4,5,8)              119.7478         estimate D2E/DX2                !
 ! A17   A(4,5,10)             120.3447         estimate D2E/DX2                !
 ! A18   A(8,5,10)             119.9075         estimate D2E/DX2                !
 ! A19   A(2,9,10)             120.57           estimate D2E/DX2                !
 ! A20   A(2,9,12)             131.1016         estimate D2E/DX2                !
 ! A21   A(10,9,12)            108.3283         estimate D2E/DX2                !
 ! A22   A(5,10,9)             119.4898         estimate D2E/DX2                !
 ! A23   A(5,10,22)            129.1423         estimate D2E/DX2                !
 ! A24   A(9,10,22)            111.3669         estimate D2E/DX2                !
 ! A25   A(12,11,16)           119.4392         estimate D2E/DX2                !
 ! A26   A(12,11,22)           111.4033         estimate D2E/DX2                !
 ! A27   A(16,11,22)           129.156          estimate D2E/DX2                !
 ! A28   A(9,12,11)            108.3962         estimate D2E/DX2                !
 ! A29   A(9,12,13)            131.1571         estimate D2E/DX2                !
 ! A30   A(11,12,13)           120.4466         estimate D2E/DX2                !
 ! A31   A(12,13,14)           119.6579         estimate D2E/DX2                !
 ! A32   A(12,13,17)           120.7358         estimate D2E/DX2                !
 ! A33   A(14,13,17)           119.6062         estimate D2E/DX2                !
 ! A34   A(13,14,15)           121.0911         estimate D2E/DX2                !
 ! A35   A(13,14,18)           118.8182         estimate D2E/DX2                !
 ! A36   A(15,14,18)           120.0851         estimate D2E/DX2                !
 ! A37   A(14,15,16)           118.1551         estimate D2E/DX2                !
 ! A38   A(14,15,36)           120.9434         estimate D2E/DX2                !
 ! A39   A(16,15,36)           120.9015         estimate D2E/DX2                !
 ! A40   A(11,16,15)           121.2098         estimate D2E/DX2                !
 ! A41   A(11,16,19)           119.2517         estimate D2E/DX2                !
 ! A42   A(15,16,19)           119.5327         estimate D2E/DX2                !
 ! A43   A(21,20,24)           103.0583         estimate D2E/DX2                !
 ! A44   A(21,20,29)           110.3969         estimate D2E/DX2                !
 ! A45   A(21,20,30)           112.5589         estimate D2E/DX2                !
 ! A46   A(24,20,29)           110.5101         estimate D2E/DX2                !
 ! A47   A(24,20,30)           112.6102         estimate D2E/DX2                !
 ! A48   A(29,20,30)           107.7051         estimate D2E/DX2                !
 ! A49   A(20,21,22)           107.0353         estimate D2E/DX2                !
 ! A50   A(20,21,25)           108.905          estimate D2E/DX2                !
 ! A51   A(20,21,26)           111.946          estimate D2E/DX2                !
 ! A52   A(22,21,25)           110.4379         estimate D2E/DX2                !
 ! A53   A(22,21,26)           112.5228         estimate D2E/DX2                !
 ! A54   A(25,21,26)           105.9827         estimate D2E/DX2                !
 ! A55   A(10,22,11)           100.5051         estimate D2E/DX2                !
 ! A56   A(10,22,21)           113.3341         estimate D2E/DX2                !
 ! A57   A(10,22,23)           113.4129         estimate D2E/DX2                !
 ! A58   A(11,22,21)           113.1637         estimate D2E/DX2                !
 ! A59   A(11,22,23)           113.2341         estimate D2E/DX2                !
 ! A60   A(21,22,23)           103.6199         estimate D2E/DX2                !
 ! A61   A(22,23,24)           107.383          estimate D2E/DX2                !
 ! A62   A(22,23,27)           110.5169         estimate D2E/DX2                !
 ! A63   A(22,23,28)           112.4321         estimate D2E/DX2                !
 ! A64   A(24,23,27)           109.0609         estimate D2E/DX2                !
 ! A65   A(24,23,28)           111.603          estimate D2E/DX2                !
 ! A66   A(27,23,28)           105.8353         estimate D2E/DX2                !
 ! A67   A(20,24,23)           103.4299         estimate D2E/DX2                !
 ! A68   A(20,24,31)           110.3349         estimate D2E/DX2                !
 ! A69   A(20,24,32)           112.5773         estimate D2E/DX2                !
 ! A70   A(23,24,31)           110.2735         estimate D2E/DX2                !
 ! A71   A(23,24,32)           112.5655         estimate D2E/DX2                !
 ! A72   A(31,24,32)           107.6587         estimate D2E/DX2                !
 ! A73   A(34,33,38)           120.4574         estimate D2E/DX2                !
 ! A74   A(34,33,39)           119.7754         estimate D2E/DX2                !
 ! A75   A(38,33,39)           119.7672         estimate D2E/DX2                !
 ! A76   A(33,34,35)           119.6596         estimate D2E/DX2                !
 ! A77   A(33,34,40)           120.2106         estimate D2E/DX2                !
 ! A78   A(35,34,40)           120.1295         estimate D2E/DX2                !
 ! A79   A(34,35,36)           120.7729         estimate D2E/DX2                !
 ! A80   A(34,35,41)           119.0083         estimate D2E/DX2                !
 ! A81   A(36,35,41)           120.2125         estimate D2E/DX2                !
 ! A82   A(15,36,35)           120.6502         estimate D2E/DX2                !
 ! A83   A(15,36,37)           120.6708         estimate D2E/DX2                !
 ! A84   A(35,36,37)           118.679          estimate D2E/DX2                !
 ! A85   A(36,37,38)           120.779          estimate D2E/DX2                !
 ! A86   A(36,37,42)           120.1997         estimate D2E/DX2                !
 ! A87   A(38,37,42)           119.0152         estimate D2E/DX2                !
 ! A88   A(33,38,37)           119.6521         estimate D2E/DX2                !
 ! A89   A(33,38,43)           120.2242         estimate D2E/DX2                !
 ! A90   A(37,38,43)           120.1234         estimate D2E/DX2                !
 ! D1    D(44,1,4,3)          -146.1558         estimate D2E/DX2                !
 ! D2    D(44,1,4,5)            32.7837         estimate D2E/DX2                !
 ! D3    D(45,1,4,3)           -27.8075         estimate D2E/DX2                !
 ! D4    D(45,1,4,5)           151.132          estimate D2E/DX2                !
 ! D5    D(46,1,4,3)            93.3252         estimate D2E/DX2                !
 ! D6    D(46,1,4,5)           -87.7353         estimate D2E/DX2                !
 ! D7    D(6,2,3,4)            179.9763         estimate D2E/DX2                !
 ! D8    D(6,2,3,7)              0.0166         estimate D2E/DX2                !
 ! D9    D(9,2,3,4)             -0.1382         estimate D2E/DX2                !
 ! D10   D(9,2,3,7)            179.9022         estimate D2E/DX2                !
 ! D11   D(3,2,9,10)             0.0675         estimate D2E/DX2                !
 ! D12   D(3,2,9,12)          -179.8059         estimate D2E/DX2                !
 ! D13   D(6,2,9,10)           179.9518         estimate D2E/DX2                !
 ! D14   D(6,2,9,12)             0.0784         estimate D2E/DX2                !
 ! D15   D(2,3,4,1)            179.2857         estimate D2E/DX2                !
 ! D16   D(2,3,4,5)              0.3411         estimate D2E/DX2                !
 ! D17   D(7,3,4,1)             -0.755          estimate D2E/DX2                !
 ! D18   D(7,3,4,5)           -179.6996         estimate D2E/DX2                !
 ! D19   D(1,4,5,8)              0.6561         estimate D2E/DX2                !
 ! D20   D(1,4,5,10)          -179.4209         estimate D2E/DX2                !
 ! D21   D(3,4,5,8)            179.6017         estimate D2E/DX2                !
 ! D22   D(3,4,5,10)            -0.4754         estimate D2E/DX2                !
 ! D23   D(4,5,10,9)             0.4047         estimate D2E/DX2                !
 ! D24   D(4,5,10,22)         -179.9915         estimate D2E/DX2                !
 ! D25   D(8,5,10,9)          -179.6725         estimate D2E/DX2                !
 ! D26   D(8,5,10,22)           -0.0687         estimate D2E/DX2                !
 ! D27   D(2,9,10,5)            -0.1999         estimate D2E/DX2                !
 ! D28   D(2,9,10,22)         -179.8699         estimate D2E/DX2                !
 ! D29   D(12,9,10,5)          179.6996         estimate D2E/DX2                !
 ! D30   D(12,9,10,22)           0.0296         estimate D2E/DX2                !
 ! D31   D(2,9,12,11)          179.7722         estimate D2E/DX2                !
 ! D32   D(2,9,12,13)           -0.2864         estimate D2E/DX2                !
 ! D33   D(10,9,12,11)          -0.1129         estimate D2E/DX2                !
 ! D34   D(10,9,12,13)         179.8284         estimate D2E/DX2                !
 ! D35   D(5,10,22,11)        -179.5742         estimate D2E/DX2                !
 ! D36   D(5,10,22,21)          59.3822         estimate D2E/DX2                !
 ! D37   D(5,10,22,23)         -58.4092         estimate D2E/DX2                !
 ! D38   D(9,10,22,11)           0.0555         estimate D2E/DX2                !
 ! D39   D(9,10,22,21)        -120.9882         estimate D2E/DX2                !
 ! D40   D(9,10,22,23)         121.2205         estimate D2E/DX2                !
 ! D41   D(16,11,12,9)         179.7417         estimate D2E/DX2                !
 ! D42   D(16,11,12,13)         -0.2071         estimate D2E/DX2                !
 ! D43   D(22,11,12,9)           0.1531         estimate D2E/DX2                !
 ! D44   D(22,11,12,13)       -179.7958         estimate D2E/DX2                !
 ! D45   D(12,11,16,15)          0.1803         estimate D2E/DX2                !
 ! D46   D(12,11,16,19)       -178.9346         estimate D2E/DX2                !
 ! D47   D(22,11,16,15)        179.6864         estimate D2E/DX2                !
 ! D48   D(22,11,16,19)          0.5715         estimate D2E/DX2                !
 ! D49   D(12,11,22,10)         -0.1276         estimate D2E/DX2                !
 ! D50   D(12,11,22,21)        121.0374         estimate D2E/DX2                !
 ! D51   D(12,11,22,23)       -121.4198         estimate D2E/DX2                !
 ! D52   D(16,11,22,10)       -179.6656         estimate D2E/DX2                !
 ! D53   D(16,11,22,21)        -58.5006         estimate D2E/DX2                !
 ! D54   D(16,11,22,23)         59.0422         estimate D2E/DX2                !
 ! D55   D(9,12,13,14)        -179.7968         estimate D2E/DX2                !
 ! D56   D(9,12,13,17)           0.3392         estimate D2E/DX2                !
 ! D57   D(11,12,13,14)          0.1387         estimate D2E/DX2                !
 ! D58   D(11,12,13,17)       -179.7253         estimate D2E/DX2                !
 ! D59   D(12,13,14,15)         -0.0406         estimate D2E/DX2                !
 ! D60   D(12,13,14,18)       -179.1793         estimate D2E/DX2                !
 ! D61   D(17,13,14,15)        179.825          estimate D2E/DX2                !
 ! D62   D(17,13,14,18)          0.6863         estimate D2E/DX2                !
 ! D63   D(13,14,15,16)          0.0128         estimate D2E/DX2                !
 ! D64   D(13,14,15,36)       -179.9936         estimate D2E/DX2                !
 ! D65   D(18,14,15,16)        179.1407         estimate D2E/DX2                !
 ! D66   D(18,14,15,36)         -0.8657         estimate D2E/DX2                !
 ! D67   D(14,15,16,11)         -0.0831         estimate D2E/DX2                !
 ! D68   D(14,15,16,19)        179.0294         estimate D2E/DX2                !
 ! D69   D(36,15,16,11)        179.9233         estimate D2E/DX2                !
 ! D70   D(36,15,16,19)         -0.9643         estimate D2E/DX2                !
 ! D71   D(14,15,36,35)        142.0161         estimate D2E/DX2                !
 ! D72   D(14,15,36,37)        -37.9913         estimate D2E/DX2                !
 ! D73   D(16,15,36,35)        -37.9904         estimate D2E/DX2                !
 ! D74   D(16,15,36,37)        142.0022         estimate D2E/DX2                !
 ! D75   D(24,20,21,22)         34.095          estimate D2E/DX2                !
 ! D76   D(24,20,21,25)        -85.3098         estimate D2E/DX2                !
 ! D77   D(24,20,21,26)        157.8324         estimate D2E/DX2                !
 ! D78   D(29,20,21,22)        -83.9378         estimate D2E/DX2                !
 ! D79   D(29,20,21,25)        156.6574         estimate D2E/DX2                !
 ! D80   D(29,20,21,26)         39.7996         estimate D2E/DX2                !
 ! D81   D(30,20,21,22)        155.6769         estimate D2E/DX2                !
 ! D82   D(30,20,21,25)         36.2721         estimate D2E/DX2                !
 ! D83   D(30,20,21,26)        -80.5857         estimate D2E/DX2                !
 ! D84   D(21,20,24,23)        -39.3819         estimate D2E/DX2                !
 ! D85   D(21,20,24,31)         78.5497         estimate D2E/DX2                !
 ! D86   D(21,20,24,32)       -161.1552         estimate D2E/DX2                !
 ! D87   D(29,20,24,23)         78.5715         estimate D2E/DX2                !
 ! D88   D(29,20,24,31)       -163.497          estimate D2E/DX2                !
 ! D89   D(29,20,24,32)        -43.2018         estimate D2E/DX2                !
 ! D90   D(30,20,24,23)       -160.9291         estimate D2E/DX2                !
 ! D91   D(30,20,24,31)        -42.9975         estimate D2E/DX2                !
 ! D92   D(30,20,24,32)         77.2976         estimate D2E/DX2                !
 ! D93   D(20,21,22,10)       -138.2869         estimate D2E/DX2                !
 ! D94   D(20,21,22,11)        108.1013         estimate D2E/DX2                !
 ! D95   D(20,21,22,23)        -14.9343         estimate D2E/DX2                !
 ! D96   D(25,21,22,10)        -19.8745         estimate D2E/DX2                !
 ! D97   D(25,21,22,11)       -133.4863         estimate D2E/DX2                !
 ! D98   D(25,21,22,23)        103.4781         estimate D2E/DX2                !
 ! D99   D(26,21,22,10)         98.3312         estimate D2E/DX2                !
 ! D100  D(26,21,22,11)        -15.2806         estimate D2E/DX2                !
 ! D101  D(26,21,22,23)       -138.3162         estimate D2E/DX2                !
 ! D102  D(10,22,23,24)        113.4904         estimate D2E/DX2                !
 ! D103  D(10,22,23,27)       -127.6588         estimate D2E/DX2                !
 ! D104  D(10,22,23,28)         -9.6444         estimate D2E/DX2                !
 ! D105  D(11,22,23,24)       -132.7995         estimate D2E/DX2                !
 ! D106  D(11,22,23,27)        -13.9488         estimate D2E/DX2                !
 ! D107  D(11,22,23,28)        104.0656         estimate D2E/DX2                !
 ! D108  D(21,22,23,24)         -9.8103         estimate D2E/DX2                !
 ! D109  D(21,22,23,27)        109.0404         estimate D2E/DX2                !
 ! D110  D(21,22,23,28)       -132.9452         estimate D2E/DX2                !
 ! D111  D(22,23,24,20)         30.8395         estimate D2E/DX2                !
 ! D112  D(22,23,24,31)        -87.1348         estimate D2E/DX2                !
 ! D113  D(22,23,24,32)        152.6207         estimate D2E/DX2                !
 ! D114  D(27,23,24,20)        -88.9442         estimate D2E/DX2                !
 ! D115  D(27,23,24,31)        153.0815         estimate D2E/DX2                !
 ! D116  D(27,23,24,32)         32.837          estimate D2E/DX2                !
 ! D117  D(28,23,24,20)        154.483          estimate D2E/DX2                !
 ! D118  D(28,23,24,31)         36.5087         estimate D2E/DX2                !
 ! D119  D(28,23,24,32)        -83.7358         estimate D2E/DX2                !
 ! D120  D(38,33,34,35)          0.038          estimate D2E/DX2                !
 ! D121  D(38,33,34,40)       -179.7617         estimate D2E/DX2                !
 ! D122  D(39,33,34,35)       -179.969          estimate D2E/DX2                !
 ! D123  D(39,33,34,40)          0.2313         estimate D2E/DX2                !
 ! D124  D(34,33,38,37)          0.0312         estimate D2E/DX2                !
 ! D125  D(34,33,38,43)       -179.7741         estimate D2E/DX2                !
 ! D126  D(39,33,38,37)       -179.9618         estimate D2E/DX2                !
 ! D127  D(39,33,38,43)          0.2329         estimate D2E/DX2                !
 ! D128  D(33,34,35,36)         -0.07           estimate D2E/DX2                !
 ! D129  D(33,34,35,41)       -179.1566         estimate D2E/DX2                !
 ! D130  D(40,34,35,36)        179.7298         estimate D2E/DX2                !
 ! D131  D(40,34,35,41)          0.6433         estimate D2E/DX2                !
 ! D132  D(34,35,36,15)       -179.9751         estimate D2E/DX2                !
 ! D133  D(34,35,36,37)          0.0322         estimate D2E/DX2                !
 ! D134  D(41,35,36,15)         -0.8995         estimate D2E/DX2                !
 ! D135  D(41,35,36,37)        179.1078         estimate D2E/DX2                !
 ! D136  D(15,36,37,38)       -179.9548         estimate D2E/DX2                !
 ! D137  D(15,36,37,42)         -0.8655         estimate D2E/DX2                !
 ! D138  D(35,36,37,38)          0.0379         estimate D2E/DX2                !
 ! D139  D(35,36,37,42)        179.1272         estimate D2E/DX2                !
 ! D140  D(36,37,38,33)         -0.0695         estimate D2E/DX2                !
 ! D141  D(36,37,38,43)        179.736          estimate D2E/DX2                !
 ! D142  D(42,37,38,33)       -179.1695         estimate D2E/DX2                !
 ! D143  D(42,37,38,43)          0.636          estimate D2E/DX2                !
 --------------------------------------------------------------------------------
 Trust Radius=3.00D-01 FncErr=1.00D-07 GrdErr=1.00D-06 EigMax=2.50D+02 EigMin=1.00D-04
 Number of steps in this run=    276 maximum allowed number of steps=    276.
 GradGradGradGradGradGradGradGradGradGradGradGradGradGradGradGradGradGrad

                          Input orientation:                          
 ---------------------------------------------------------------------
 Center     Atomic      Atomic             Coordinates (Angstroms)
 Number     Number       Type             X           Y           Z
 ---------------------------------------------------------------------
      1          6           0        2.615200   -9.262300    2.565500
      2          6           0        1.065800   -6.132900    4.095000
      3          6           0        1.957700   -6.984700    3.441600
      4          6           0        1.653100   -8.340300    3.289800
      5          6           0        0.446200   -8.838200    3.789800
      6          1           0        1.311800   -5.087900    4.206700
      7          1           0        2.884800   -6.587300    3.055300
      8          1           0        0.206400   -9.883900    3.667700
      9          6           0       -0.134700   -6.639800    4.594600
     10          6           0       -0.449900   -7.989400    4.447900
     11          6           0       -2.212000   -6.937400    5.584000
     12          6           0       -1.237600   -5.982900    5.307200
     13          6           0       -1.414100   -4.658100    5.702800
     14          6           0       -2.575100   -4.289600    6.383300
     15          6           0       -3.572300   -5.231300    6.677100
     16          6           0       -3.371200   -6.557900    6.267800
     17          1           0       -0.663500   -3.913200    5.486700
     18          1           0       -2.703900   -3.257000    6.671600
     19          1           0       -4.116900   -7.303900    6.496100
     20          6           0       -2.926500  -10.324700    5.982800
     21          6           0       -1.732300   -9.389000    6.181800
     22          6           0       -1.806400   -8.313600    5.065500
     23          6           0       -2.820300   -8.909300    4.050400
     24          6           0       -3.089200  -10.357800    4.468800
     25          1           0       -0.811200   -9.967500    6.093100
     26          1           0       -1.718100   -8.952900    7.182100
     27          1           0       -3.758000   -8.351500    4.074300
     28          1           0       -2.463600   -8.848100    3.021000
     29          1           0       -3.818800   -9.908400    6.454400
     30          1           0       -2.757700  -11.315100    6.408300
     31          1           0       -2.348700  -11.024300    4.022100
     32          1           0       -4.076300  -10.706100    4.161100
     33          6           0       -7.139900   -4.088000    8.770300
     34          6           0       -7.212300   -5.019500    7.738400
     35          6           0       -6.052800   -5.389300    7.061100
     36          6           0       -4.813200   -4.833400    7.405200
     37          6           0       -4.761900   -3.896800    8.446400
     38          6           0       -5.918200   -3.524600    9.127900
     39          1           0       -8.038300   -3.800100    9.297400
     40          1           0       -8.163200   -5.451400    7.461600
     41          1           0       -6.123100   -6.102600    6.253100
     42          1           0       -3.817500   -3.463400    8.741300
     43          1           0       -5.865800   -2.804700    9.931800
     44          1           0        2.073600  -10.034700    2.018300
     45          1           0        3.206000   -8.715400    1.829900
     46          1           0        3.289300   -9.744200    3.273800
 ---------------------------------------------------------------------
                    Distance matrix (angstroms):
                    1          2          3          4          5
     1  C    0.000000
     2  C    3.812238   0.000000
     3  C    2.527315   1.395701   0.000000
     4  C    1.516684   2.421959   1.397668   0.000000
     5  C    2.526526   2.792078   2.416886   1.398039   0.000000
     6  H    4.670975   1.079360   2.144858   3.396365   3.871410
     7  H    2.732803   2.143879   1.080124   2.155246   3.398943
     8  H    2.720946   3.871841   3.394633   2.149058   1.079769
     9  C    4.307749   1.395617   2.413815   2.791135   2.412076
    10  C    3.815566   2.422494   2.796176   2.426301   1.398768
    11  C    6.149664   3.688945   4.688125   4.708554   3.728032
    12  C    5.754603   2.607217   3.833276   4.240682   3.645603
    13  C    6.875796   3.303023   4.679223   5.365527   4.959186
    14  C    8.138953   4.678699   6.038496   6.622355   6.045185
    15  C    8.452181   5.384431   6.642573   6.960207   6.123281
    16  C    7.540410   4.958695   6.047044   6.106474   5.090461
    17  H    6.920705   3.139168   4.526283   5.458225   5.326024
    18  H    9.012020   5.396323   6.786690   7.500664   7.026926
    19  H    8.037793   5.830686   6.806807   6.681870   5.522682
    20  C    6.596747   6.088796   6.439620   5.671228   4.288827
    21  C    5.656362   4.773498   5.187047   4.574316   3.281906
    22  C    5.167260   3.734549   4.309463   3.888697   2.641368
    23  C    5.645724   4.776208   5.186907   4.573137   3.277650
    24  C    6.112516   5.937468   6.156634   5.286753   3.907592
    25  H    4.968046   4.713777   4.857402   4.071737   2.856845
    26  H    6.339260   5.023215   5.601487   5.185583   4.025550
    27  H    6.612391   5.309582   5.910810   5.467684   4.241829
    28  H    5.115980   4.580661   4.816332   4.156601   3.009666
    29  H    7.545684   6.609121   7.140934   6.512705   5.141561
    30  H    6.917308   6.842931   7.056109   6.166817   4.822505
    31  H    5.465037   5.965729   5.932995   4.873861   3.555905
    32  H    7.028988   6.881840   7.125704   6.259568   4.907130
    33  C   12.666290   9.662999  10.933995  11.199767  10.242983
    34  C   11.888650   9.112681  10.315687  10.460070   9.424783
    35  C   10.504512   7.747590   8.933879   9.072596   8.051914
    36  C    9.910549   6.870864   8.135312   8.428992   7.534642
    37  C   10.853349   7.609002   8.929511   9.353472   8.557199
    38  C   12.198574   8.994975  10.311940  10.705090   9.860793
    39  H   13.735034  10.742046  12.014661  12.273056  11.300569
    40  H   12.436586   9.847481  10.997455  11.050312   9.953607
    41  H    9.996999   7.505904   8.601277   8.617293   7.530409
    42  H   10.637076   7.249893   8.592980   9.134028   8.460790
    43  H   12.957250   9.653612  10.991008  11.458311  10.675609
    44  H    1.090578   4.533474   3.367746   2.159751   2.686681
    45  H    1.090528   4.047276   2.674164   2.164141   3.387150
    46  H    1.090104   4.319700   3.068576   2.156001   3.028252
                    6          7          8          9         10
     6  H    0.000000
     7  H    2.459319   0.000000
     8  H    4.951166   4.291437   0.000000
     9  C    2.156669   3.389628   3.391117   0.000000
    10  C    3.403008   3.876267   2.151412   1.393661   0.000000
    11  C    4.211267   5.700374   4.266465   2.320055   2.345725
    12  C    2.917459   4.736089   4.471118   1.468232   2.320541
    13  C    3.139040   5.404777   5.837520   2.606167   3.688091
    14  C    4.525800   6.794521   6.812299   3.831245   4.685165
    15  C    5.475205   7.526640   6.706843   4.258846   4.725022
    16  C    5.323488   7.032678   5.533716   3.644343   3.727630
    17  H    2.630614   5.064874   6.301964   2.917159   4.211904
    18  H    5.055074   7.443258   7.836394   4.728430   5.693941
    19  H    6.294664   7.834311   5.774701   4.462583   4.255810
    20  C    6.967194   7.503974   3.920339   4.826980   3.734045
    21  C    5.627346   6.240364   3.213127   3.553819   2.570961
    22  C    4.567915   5.387799   2.910507   2.412039   1.525329
    23  C    5.630433   6.239397   3.202689   3.557981   2.573523
    24  C    6.870906   7.204396   3.424518   4.750623   3.546218
    25  H    5.645895   5.857849   2.631552   3.711703   2.598096
    26  H    5.742084   6.619156   4.113571   3.814806   3.164256
    27  H    6.030878   6.948205   4.269665   4.040907   3.348764
    28  H    5.458812   5.806701   2.935984   3.574434   2.613120
    29  H    7.390022   8.217167   4.895767   5.264522   4.365557
    30  H    7.757957   8.089036   4.283119   5.659334   4.497709
    31  H    6.976688   6.929011   2.820398   4.945037   3.605186
    32  H    7.784464   8.163591   4.388733   5.679694   4.540208
    33  C    9.656991  11.806877  10.658194   8.545231   8.869057
    34  C    9.227018  11.240145   9.760640   7.912097   8.085651
    35  C    7.904162   9.867235   8.419868   6.532326   6.706849
    36  C    6.914535   9.014266   8.041943   5.748993   6.143643
    37  C    7.502240   9.735233   9.130462   6.615995   7.164546
    38  C    8.884538  11.124271  10.381002   7.981488   8.469896
    39  H   10.723713  12.885900  11.691074   9.625337   9.932356
    40  H   10.025075  11.948391  10.202497   8.607485   8.661341
    41  H    7.777860   9.570952   7.813136   6.236998   6.245315
    42  H    7.036428   9.327924   9.118992   6.391217   7.089336
    43  H    9.460852  11.754459  11.235018   8.720046   9.289039
    44  H    5.462624   3.690255   2.495936   4.799923   4.056385
    45  H    4.732434   2.476607   3.706818   4.807490   4.554844
    46  H    5.144117   3.190201   3.111100   4.806827   4.294118
                   11         12         13         14         15
    11  C    0.000000
    12  C    1.391813   0.000000
    13  C    2.417843   1.393824   0.000000
    14  C    2.789546   2.411257   1.395275   0.000000
    15  C    2.440504   2.809333   2.436318   1.402685   0.000000
    16  C    1.398337   2.409487   2.785445   2.406720   1.402796
    17  H    3.398986   2.155335   1.079340   2.144710   3.408160
    18  H    3.869132   3.382625   2.136642   1.079800   2.156852
    19  H    2.143570   3.383621   3.864545   3.387606   2.150586
    20  C    3.484731   4.707446   5.871636   6.058574   5.180911
    21  C    2.568622   3.551221   4.765722   5.172504   4.573553
    22  C    1.525543   2.411248   3.731318   4.303495   3.900799
    23  C    2.571060   3.556445   4.772895   5.181136   4.581784
    24  C    3.703011   4.824012   6.067561   6.383781   5.602765
    25  H    3.376822   4.083686   5.357756   5.952656   5.513286
    26  H    2.619179   3.545001   4.552587   4.808211   4.188483
    27  H    2.582439   3.671883   4.667664   4.819727   4.067518
    28  H    3.206719   3.865121   5.084250   5.665458   5.260943
    29  H    3.488014   4.836136   5.823498   5.755237   4.688883
    30  H    4.487930   5.652918   6.827784   7.027917   6.143977
    31  H    4.377325   5.319938   6.650318   7.140218   6.488842
    32  H    4.438847   5.628533   6.785459   6.954369   6.046297
    33  C    6.523480   7.100764   6.520687   5.155173   4.291432
    34  C    5.772589   6.521956   6.155762   4.885967   3.797475
    35  C    4.396610   5.158941   4.888473   3.709872   2.515015
    36  C    3.809177   4.302077   3.805624   2.519740   1.492745
    37  C    4.892910   5.160143   4.394847   3.031958   2.515246
    38  C    6.159736   6.522960   5.770879   4.392536   3.797696
    39  H    7.588001   8.181432   7.585337   6.211131   5.372100
    40  H    6.414855   7.272404   7.019477   5.808560   4.662644
    41  H    4.054786   4.977667   4.956217   3.986505   2.728648
    42  H    4.961335   4.979639   4.054149   2.790399   2.728830
    43  H    7.023733   7.273797   6.413826   5.062162   4.662789
    44  H    6.377605   6.180452   7.392389   8.583112   8.755185
    45  H    6.827099   6.269270   7.266799   8.587332   9.032145
    46  H    6.593895   6.226951   7.341010   8.591440   8.889897
                   16         17         18         19         20
    16  C    0.000000
    17  H    3.864737   0.000000
    18  H    3.391797   2.449044   0.000000
    19  H    1.079215   4.943855   4.290078   0.000000
    20  C    3.803652   6.817229   7.104673   3.287212   0.000000
    21  C    3.272387   5.622267   6.227787   3.183197   1.530114
    22  C    2.641327   4.565868   5.380917   2.899055   2.478021
    23  C    3.278633   5.628122   6.231592   3.199989   2.397667
    24  C    4.213688   6.960820   7.444605   3.806891   1.523077
    25  H    4.267258   6.086385   6.996269   4.264367   2.148081
    26  H    3.050362   5.420806   5.803076   2.990659   2.186409
    27  H    2.859730   5.591897   5.814725   2.662966   2.868324
    28  H    4.075594   5.802868   6.681693   4.146598   3.341689
    29  H    3.385412   6.843594   6.747688   2.621836   1.091747
    30  H    4.798653   7.747460   8.062580   4.236137   1.091071
    31  H    5.102686   7.453368   8.214436   4.805058   2.160472
    32  H    4.705626   7.716729   7.979673   4.126601   2.187715
    33  C    5.154223   7.263356   4.977268   4.965131   8.026165
    34  C    4.391285   7.012905   4.956828   4.042684   7.042397
    35  C    3.030830   5.805356   3.989178   2.780760   5.940931
    36  C    2.519314   4.663413   2.733560   2.722989   5.978063
    37  C    3.709690   5.055391   2.791885   3.978445   7.124319
    38  C    4.885518   6.404781   4.054225   4.945115   8.067421
    39  H    6.210134   8.301922   5.970394   5.958295   8.926784
    40  H    5.060906   7.906440   5.936619   4.553734   7.304720
    41  H    2.789349   5.931954   4.468054   2.350959   5.302588
    42  H    3.986642   4.554389   2.359314   4.458700   7.448533
    43  H    5.808135   6.931927   4.564109   5.924988   8.988019
    44  H    7.732544   7.549455   9.508676   8.113584   6.387673
    45  H    8.222489   7.169822   9.389521   8.797194   7.579181
    46  H    7.967359   7.383909   9.462941   8.437421   6.805280
                   21         22         23         24         25
    21  C    0.000000
    22  C    1.551806   0.000000
    23  C    2.440640   1.553473   0.000000
    24  C    2.390423   2.486037   1.531508   0.000000
    25  H    1.091309   2.186726   3.054324   2.824884   0.000000
    26  H    1.091323   2.212803   3.320285   3.348978   1.742929
    27  H    3.101842   2.189214   1.091326   2.151317   3.920541
    28  H    3.289077   2.213048   1.091167   2.183276   3.663507
    29  H    2.167388   2.919278   2.788265   2.162610   3.029800
    30  H    2.193766   3.423023   3.369196   2.188144   2.388355
    31  H    2.778212   2.954770   2.167125   1.091835   2.787431
    32  H    3.363379   3.419714   2.195058   1.091036   3.865104
    33  C    8.002691   7.747739   8.011325   8.615188   9.043692
    34  C    7.179550   6.871626   6.929758   7.495844   8.256137
    35  C    5.952940   5.528640   5.648342   6.339474   7.026472
    36  C    5.634017   5.160120   5.642632   6.489500   6.640527
    37  C    6.668669   6.298697   6.944047   7.769411   7.615737
    38  C    7.784115   7.506298   8.023278   8.740885   8.763699
    39  H    8.983786   8.781642   8.992356   9.529554  10.026731
    40  H    7.648468   7.371729   7.220799   7.666491   8.736124
    41  H    5.484946   4.993277   4.861886   5.522228   6.571098
    42  H    6.783202   6.409405   7.256499   8.143551   7.638987
    43  H    8.631415   8.396879   9.007335   9.726417   9.570282
    44  H    5.677723   5.225133   5.417214   5.723971   4.993053
    45  H    6.616614   5.979524   6.425302   7.020742   5.990035
    46  H    5.813699   5.587751   6.215093   6.518419   4.981206
                   26         27         28         29         30
    26  H    0.000000
    27  H    3.765806   0.000000
    28  H    4.228653   1.741127   0.000000
    29  H    2.419807   2.844734   3.840448   0.000000
    30  H    2.694350   3.902702   4.200760   1.762630   0.000000
    31  H    3.830660   3.022038   2.398176   3.053279   2.438400
    32  H    4.214411   2.377602   2.711603   2.441691   2.675723
    33  C    7.455572   7.187983   8.807995   7.090145   8.775745
    34  C    6.779922   6.038215   7.711173   6.088172   7.826059
    35  C    5.612799   4.791838   6.416234   5.077510   6.811677
    36  C    5.157489   4.958364   6.392155   5.258182   6.872505
    37  C    6.035505   6.321980   7.696267   6.402877   7.949959
    38  C    7.133962   7.314663   8.807278   7.232426   8.836112
    39  H    8.424415   8.143524   9.795549   7.949727   9.628440
    40  H    7.340159   6.268187   7.983855   6.305007   8.044368
    41  H    5.328346   3.924082   5.601445   4.453587   6.206461
    42  H    6.080559   6.758547   7.971817   6.838709   8.259253
    43  H    7.909781   8.337872   9.790649   8.169766   9.721227
    44  H    6.497085   6.408421   4.795791   7.376674   6.652292
    45  H    7.276621   7.325780   5.794885   8.494531   7.955244
    46  H    6.401173   7.228060   5.827758   7.788983   6.989923
                   31         32         33         34         35
    31  H    0.000000
    32  H    1.762150   0.000000
    33  C    9.675394   8.627260   0.000000
    34  C    8.574562   7.414108   1.392031   0.000000
    35  C    7.396560   6.370629   2.407599   1.392813   0.000000
    36  C    7.473043   6.749505   2.798688   2.429267   1.401441
    37  C    8.729217   8.074677   2.407562   2.786787   2.411024
    38  C    9.749668   8.923880   1.392066   2.416636   2.786913
    39  H   10.601387   9.474801   1.080668   2.144690   3.386562
    40  H    8.757613   7.430203   2.149116   1.080447   2.148964
    41  H    6.591403   5.455095   3.380650   2.136721   1.080094
    42  H    9.033019   8.573326   3.380726   3.866772   3.395398
    43  H   10.717106   9.946628   2.149249   3.395498   3.867305
    44  H    4.954923   6.547033  12.877940  12.004154  10.632401
    45  H    6.402457   7.901220  13.289832  12.534394  11.142431
    46  H    5.829722   7.480950  13.075639  12.350670  10.981058
                   36         37         38         39         40
    36  C    0.000000
    37  C    1.401410   0.000000
    38  C    2.429337   1.392841   0.000000
    39  H    3.879356   3.386495   2.144634   0.000000
    40  H    3.406994   3.867228   3.395459   2.472358   0.000000
    41  H    2.157323   3.395436   3.866852   4.270510   2.458972
    42  H    2.157193   1.080136   2.136854   4.270570   4.947210
    43  H    3.406948   2.148881   1.080397   2.472456   4.287768
    44  H   10.173506  11.212419  12.521848  13.932195  12.467086
    45  H   10.510065  11.422977  12.785000  14.365167  13.100704
    46  H   10.336098  11.214709  12.559139  14.139682  12.927705
                   41         42         43         44         45
    41  H    0.000000
    42  H    4.297942   0.000000
    43  H    4.947240   2.459006   0.000000
    44  H   10.029000  11.094403  13.339057   0.000000
    45  H   10.650048  11.166043  13.523118   1.748822   0.000000
    46  H   10.522868  10.947539  13.277857   1.771609   1.774885
                   46
    46  H    0.000000
 Stoichiometry    C24H22
 Framework group  C1[X(C24H22)]
 Deg. of freedom   132
 Full point group                 C1      NOp   1
 Largest Abelian subgroup         C1      NOp   1
 Largest concise Abelian subgroup C1      NOp   1
                         Standard orientation:                         
 ---------------------------------------------------------------------
 Center     Atomic      Atomic             Coordinates (Angstroms)
 Number     Number       Type             X           Y           Z
 ---------------------------------------------------------------------
      1          6           0       -6.265267   -0.495157   -0.013006
      2          6           0       -2.942491   -2.360629   -0.124034
      3          6           0       -4.313029   -2.097674   -0.102606
      4          6           0       -4.775866   -0.781457   -0.019955
      5          6           0       -3.858538    0.272160    0.034007
      6          1           0       -2.596636   -3.381096   -0.187675
      7          1           0       -5.012006   -2.919790   -0.149767
      8          1           0       -4.214427    1.289978    0.091372
      9          6           0       -2.034202   -1.302647   -0.065452
     10          6           0       -2.483929    0.013962    0.015666
     11          6           0       -0.138349    0.033151   -0.001900
     12          6           0       -0.566060   -1.289310   -0.074736
     13          6           0        0.360341   -2.328698   -0.139547
     14          6           0        1.725126   -2.038820   -0.128257
     15          6           0        2.183947   -0.715412   -0.053440
     16          6           0        1.231706    0.312702    0.010238
     17          1           0        0.033823   -3.355652   -0.200595
     18          1           0        2.430834   -2.853566   -0.192549
     19          1           0        1.560069    1.338082    0.084255
     20          6           0       -0.947593    3.299827    0.902149
     21          6           0       -1.313777    1.880489    1.341056
     22          6           0       -1.318806    0.997151    0.065207
     23          6           0       -1.333106    2.030206   -1.094911
     24          6           0       -1.584748    3.408730   -0.476958
     25          1           0       -2.304877    1.896186    1.797595
     26          1           0       -0.635516    1.503023    2.108172
     27          1           0       -0.370854    2.040654   -1.609651
     28          1           0       -2.075967    1.789996   -1.857210
     29          1           0        0.136462    3.408759    0.832362
     30          1           0       -1.313537    4.059569    1.594474
     31          1           0       -2.657155    3.592510   -0.386016
     32          1           0       -1.159527    4.218272   -1.072095
     33          6           0        6.383754    0.165994   -0.019678
     34          6           0        5.508561    0.996941   -0.713448
     35          6           0        4.145873    0.708961   -0.722251
     36          6           0        3.644866   -0.409035   -0.041727
     37          6           0        4.542632   -1.233357    0.649980
     38          6           0        5.906090   -0.949080    0.663181
     39          1           0        7.441347    0.387958   -0.011187
     40          1           0        5.884102    1.859198   -1.245283
     41          1           0        3.477997    1.352935   -1.275282
     42          1           0        4.181491   -2.093473    1.194471
     43          1           0        6.588262   -1.589406    1.203440
     44          1           0       -6.481361    0.444782   -0.522102
     45          1           0       -6.817734   -1.271249   -0.543773
     46          1           0       -6.637604   -0.431669    1.009570
 ---------------------------------------------------------------------
 Rotational constants (GHZ):           0.5348494           0.1277920           0.1074638
 Standard basis: def2TZVP (5D, 7F)
 There are   996 symmetry adapted cartesian basis functions of A   symmetry.
 There are   876 symmetry adapted basis functions of A   symmetry.
   876 basis functions,  1400 primitive gaussians,   996 cartesian basis functions
    83 alpha electrons       83 beta electrons
       nuclear repulsion energy      1875.5068960009 Hartrees.
 NAtoms=   46 NActive=   46 NUniq=   46 SFac= 1.00D+00 NAtFMM=   60 NAOKFM=F Big=F
 Integral buffers will be    131072 words long.
 Raffenetti 2 integral format.
 Two-electron integral symmetry is turned on.
 One-electron integrals computed using PRISM.
   1 Symmetry operations used in ECPInt.
 ECPInt:  NShTT=   62128 NPrTT=  188172 LenC2=   51820 LenP2D=  110564.
 LDataN:  DoStor=T MaxTD1= 6 Len=  172
 Number of processors reduced to  27 by ecpmxn.
 NBasis=   876 RedAO= T EigKep=  4.31D-06  NBF=   876
 NBsUse=   876 1.00D-06 EigRej= -1.00D+00 NBFU=   876
 ExpMin= 9.52D-02 ExpMax= 1.36D+04 ExpMxC= 4.63D+02 IAcc=3 IRadAn=         5 AccDes= 0.00D+00
 Harris functional with IExCor= 1009 and IRadAn=       5 diagonalized for initial guess.
 HarFok:  IExCor= 1009 AccDes= 0.00D+00 IRadAn=         5 IDoV= 1 UseB2=F ITyADJ=14
 ICtDFT=  3500011 ScaDFX=  1.000000  1.000000  1.000000  1.000000
 FoFCou: FMM=F IPFlag=           0 FMFlag=      100000 FMFlg1=           0
         NFxFlg=           0 DoJE=T BraDBF=F KetDBF=T FulRan=T
         wScrn=  0.000000 ICntrl=       500 IOpCl=  0 I1Cent=   200000004 NGrid=           0
         NMat0=    1 NMatS0=      1 NMatT0=    0 NMatD0=    1 NMtDS0=    0 NMtDT0=    0
 Petite list used in FoFCou.
 Requested convergence on RMS density matrix=1.00D-08 within 128 cycles.
 Requested convergence on MAX density matrix=1.00D-06.
 Requested convergence on             energy=1.00D-06.
 No special actions if energy rises.
 Integral accuracy reduced to 1.0D-05 until final iterations.
 Problem detected with inexpensive integrals.
 Switching to full accuracy and repeating last cycle.
 SCF Done:  E(RM062X) =  -927.761910411     A.U. after   14 cycles
            NFock= 14  Conv=0.43D-08     -V/T= 2.0054

 **********************************************************************

            Population analysis using the SCF Density.

 **********************************************************************

 Orbital symmetries:
       Occupied  (A) (A) (A) (A) (A) (A) (A) (A) (A) (A) (A) (A)
                 (A) (A) (A) (A) (A) (A) (A) (A) (A) (A) (A) (A)
                 (A) (A) (A) (A) (A) (A) (A) (A) (A) (A) (A) (A)
                 (A) (A) (A) (A) (A) (A) (A) (A) (A) (A) (A) (A)
                 (A) (A) (A) (A) (A) (A) (A) (A) (A) (A) (A) (A)
                 (A) (A) (A) (A) (A) (A) (A) (A) (A) (A) (A) (A)
                 (A) (A) (A) (A) (A) (A) (A) (A) (A) (A) (A)
       Virtual   (A) (A) (A) (A) (A) (A) (A) (A) (A) (A) (A) (A)
                 (A) (A) (A) (A) (A) (A) (A) (A) (A) (A) (A) (A)
                 (A) (A) (A) (A) (A) (A) (A) (A) (A) (A) (A) (A)
                 (A) (A) (A) (A) (A) (A) (A) (A) (A) (A) (A) (A)
                 (A) (A) (A) (A) (A) (A) (A) (A) (A) (A) (A) (A)
                 (A) (A) (A) (A) (A) (A) (A) (A) (A) (A) (A) (A)
                 (A) (A) (A) (A) (A) (A) (A) (A) (A) (A) (A) (A)
                 (A) (A) (A) (A) (A) (A) (A) (A) (A) (A) (A) (A)
                 (A) (A) (A) (A) (A) (A) (A) (A) (A) (A) (A) (A)
                 (A) (A) (A) (A) (A) (A) (A) (A) (A) (A) (A) (A)
                 (A) (A) (A) (A) (A) (A) (A) (A) (A) (A) (A) (A)
                 (A) (A) (A) (A) (A) (A) (A) (A) (A) (A) (A) (A)
                 (A) (A) (A) (A) (A) (A) (A) (A) (A) (A) (A) (A)
                 (A) (A) (A) (A) (A) (A) (A) (A) (A) (A) (A) (A)
                 (A) (A) (A) (A) (A) (A) (A) (A) (A) (A) (A) (A)
                 (A) (A) (A) (A) (A) (A) (A) (A) (A) (A) (A) (A)
                 (A) (A) (A) (A) (A) (A) (A) (A) (A) (A) (A) (A)
                 (A) (A) (A) (A) (A) (A) (A) (A) (A) (A) (A) (A)
                 (A) (A) (A) (A) (A) (A) (A) (A) (A) (A) (A) (A)
                 (A) (A) (A) (A) (A) (A) (A) (A) (A) (A) (A) (A)
                 (A) (A) (A) (A) (A) (A) (A) (A) (A) (A) (A) (A)
                 (A) (A) (A) (A) (A) (A) (A) (A) (A) (A) (A) (A)
                 (A) (A) (A) (A) (A) (A) (A) (A) (A) (A) (A) (A)
                 (A) (A) (A) (A) (A) (A) (A) (A) (A) (A) (A) (A)
                 (A) (A) (A) (A) (A) (A) (A) (A) (A) (A) (A) (A)
                 (A) (A) (A) (A) (A) (A) (A) (A) (A) (A) (A) (A)
                 (A) (A) (A) (A) (A) (A) (A) (A) (A) (A) (A) (A)
                 (A) (A) (A) (A) (A) (A) (A) (A) (A) (A) (A) (A)
                 (A) (A) (A) (A) (A) (A) (A) (A) (A) (A) (A) (A)
                 (A) (A) (A) (A) (A) (A) (A) (A) (A) (A) (A) (A)
                 (A) (A) (A) (A) (A) (A) (A) (A) (A) (A) (A) (A)
                 (A) (A) (A) (A) (A) (A) (A) (A) (A) (A) (A) (A)
                 (A) (A) (A) (A) (A) (A) (A) (A) (A) (A) (A) (A)
                 (A) (A) (A) (A) (A) (A) (A) (A) (A) (A) (A) (A)
                 (A) (A) (A) (A) (A) (A) (A) (A) (A) (A) (A) (A)
                 (A) (A) (A) (A) (A) (A) (A) (A) (A) (A) (A) (A)
                 (A) (A) (A) (A) (A) (A) (A) (A) (A) (A) (A) (A)
                 (A) (A) (A) (A) (A) (A) (A) (A) (A) (A) (A) (A)
                 (A) (A) (A) (A) (A) (A) (A) (A) (A) (A) (A) (A)
                 (A) (A) (A) (A) (A) (A) (A) (A) (A) (A) (A) (A)
                 (A) (A) (A) (A) (A) (A) (A) (A) (A) (A) (A) (A)
                 (A) (A) (A) (A) (A) (A) (A) (A) (A) (A) (A) (A)
                 (A) (A) (A) (A) (A) (A) (A) (A) (A) (A) (A) (A)
                 (A) (A) (A) (A) (A) (A) (A) (A) (A) (A) (A) (A)
                 (A) (A) (A) (A) (A) (A) (A) (A) (A) (A) (A) (A)
                 (A) (A) (A) (A) (A) (A) (A) (A) (A) (A) (A) (A)
                 (A) (A) (A) (A) (A) (A) (A) (A) (A) (A) (A) (A)
                 (A) (A) (A) (A) (A) (A) (A) (A) (A) (A) (A) (A)
                 (A) (A) (A) (A) (A) (A) (A) (A) (A) (A) (A) (A)
                 (A) (A) (A) (A) (A) (A) (A) (A) (A) (A) (A) (A)
                 (A) (A) (A) (A) (A) (A) (A) (A) (A) (A) (A) (A)
                 (A) (A) (A) (A) (A) (A) (A) (A) (A) (A) (A) (A)
                 (A) (A) (A) (A) (A) (A) (A) (A) (A) (A) (A) (A)
                 (A) (A) (A) (A) (A) (A) (A) (A) (A) (A) (A) (A)
                 (A) (A) (A) (A) (A) (A) (A) (A) (A) (A) (A) (A)
                 (A) (A) (A) (A) (A) (A) (A) (A) (A) (A) (A) (A)
                 (A) (A) (A) (A) (A) (A) (A) (A) (A) (A) (A) (A)
                 (A) (A) (A) (A) (A) (A) (A) (A) (A) (A) (A) (A)
                 (A) (A) (A) (A) (A) (A) (A) (A) (A) (A) (A) (A)
                 (A) (A) (A) (A) (A) (A) (A) (A) (A) (A) (A) (A)
                 (A) (A) (A) (A) (A) (A) (A) (A) (A) (A) (A) (A)
                 (A) (A) (A) (A) (A) (A) (A) (A) (A) (A) (A) (A)
                 (A) (A) (A) (A) (A) (A) (A) (A) (A) (A) (A) (A)
                 (A) (A) (A) (A) (A) (A) (A) (A) (A) (A) (A) (A)
                 (A) (A) (A) (A) (A) (A) (A) (A) (A) (A) (A) (A)
                 (A) (A) (A) (A) (A) (A) (A) (A) (A) (A) (A) (A)
                 (A)
 The electronic state is 1-A.
 Alpha  occ. eigenvalues --  -10.55733 -10.55419 -10.55258 -10.54943 -10.54328
 Alpha  occ. eigenvalues --  -10.54286 -10.54257 -10.54243 -10.54243 -10.54177
 Alpha  occ. eigenvalues --  -10.54160 -10.54130 -10.54125 -10.54103 -10.54026
 Alpha  occ. eigenvalues --  -10.54021 -10.54012 -10.53798 -10.53664 -10.53255
 Alpha  occ. eigenvalues --  -10.53237 -10.53168 -10.53007 -10.52966  -0.99938
 Alpha  occ. eigenvalues --   -0.96881  -0.94820  -0.94080  -0.90171  -0.86303
 Alpha  occ. eigenvalues --   -0.85703  -0.84474  -0.83493  -0.81662  -0.80736
 Alpha  occ. eigenvalues --   -0.79025  -0.76777  -0.72097  -0.70172  -0.69103
 Alpha  occ. eigenvalues --   -0.66711  -0.66350  -0.65899  -0.64617  -0.62467
 Alpha  occ. eigenvalues --   -0.59485  -0.58462  -0.55934  -0.55633  -0.54209
 Alpha  occ. eigenvalues --   -0.53726  -0.52086  -0.51571  -0.50844  -0.50397
 Alpha  occ. eigenvalues --   -0.49536  -0.49326  -0.49040  -0.48777  -0.47893
 Alpha  occ. eigenvalues --   -0.47368  -0.46929  -0.45198  -0.44182  -0.43495
 Alpha  occ. eigenvalues --   -0.43177  -0.41820  -0.41641  -0.40550  -0.40291
 Alpha  occ. eigenvalues --   -0.39811  -0.39658  -0.39468  -0.39212  -0.38683
 Alpha  occ. eigenvalues --   -0.37595  -0.36688  -0.34421  -0.30905  -0.30355
 Alpha  occ. eigenvalues --   -0.29949  -0.29644  -0.25402
 Alpha virt. eigenvalues --   -0.01690   0.00779   0.01972   0.02897   0.03260
 Alpha virt. eigenvalues --    0.05805   0.07132   0.07637   0.08552   0.08999
 Alpha virt. eigenvalues --    0.09069   0.10009   0.10378   0.10690   0.10965
 Alpha virt. eigenvalues --    0.11914   0.12289   0.12710   0.13358   0.13784
 Alpha virt. eigenvalues --    0.14134   0.14506   0.14958   0.15454   0.15961
 Alpha virt. eigenvalues --    0.16106   0.16230   0.16728   0.17058   0.18256
 Alpha virt. eigenvalues --    0.18724   0.19087   0.19461   0.19952   0.20436
 Alpha virt. eigenvalues --    0.21297   0.21610   0.21933   0.22182   0.22564
 Alpha virt. eigenvalues --    0.22900   0.23316   0.23661   0.23995   0.24222
 Alpha virt. eigenvalues --    0.24898   0.25107   0.25700   0.25713   0.25963
 Alpha virt. eigenvalues --    0.26287   0.26807   0.26983   0.27427   0.28048
 Alpha virt. eigenvalues --    0.28206   0.28883   0.29192   0.29900   0.30029
 Alpha virt. eigenvalues --    0.30470   0.31084   0.31817   0.32345   0.32474
 Alpha virt. eigenvalues --    0.32991   0.33121   0.33733   0.34266   0.34731
 Alpha virt. eigenvalues --    0.35294   0.36187   0.36446   0.36647   0.37068
 Alpha virt. eigenvalues --    0.37288   0.37870   0.38273   0.38476   0.39017
 Alpha virt. eigenvalues --    0.39155   0.39494   0.40296   0.40659   0.40916
 Alpha virt. eigenvalues --    0.41578   0.41896   0.42269   0.42422   0.42978
 Alpha virt. eigenvalues --    0.43070   0.43334   0.43760   0.43824   0.44308
 Alpha virt. eigenvalues --    0.44830   0.45029   0.45197   0.45546   0.45601
 Alpha virt. eigenvalues --    0.45896   0.46578   0.46872   0.47029   0.47083
 Alpha virt. eigenvalues --    0.47595   0.47843   0.48113   0.48373   0.48877
 Alpha virt. eigenvalues --    0.49279   0.49356   0.49814   0.50305   0.50584
 Alpha virt. eigenvalues --    0.51052   0.51361   0.52112   0.52234   0.53084
 Alpha virt. eigenvalues --    0.53143   0.53513   0.53665   0.54048   0.54725
 Alpha virt. eigenvalues --    0.54876   0.55695   0.55898   0.56784   0.57013
 Alpha virt. eigenvalues --    0.57536   0.57856   0.58586   0.58987   0.59523
 Alpha virt. eigenvalues --    0.60169   0.61023   0.62074   0.62728   0.62874
 Alpha virt. eigenvalues --    0.63381   0.64347   0.65149   0.65918   0.66673
 Alpha virt. eigenvalues --    0.67035   0.68090   0.68249   0.68425   0.69406
 Alpha virt. eigenvalues --    0.70457   0.70958   0.71054   0.71287   0.71790
 Alpha virt. eigenvalues --    0.72062   0.72526   0.73330   0.73562   0.74088
 Alpha virt. eigenvalues --    0.75058   0.75376   0.75962   0.76173   0.76829
 Alpha virt. eigenvalues --    0.77590   0.77916   0.78658   0.78880   0.78975
 Alpha virt. eigenvalues --    0.79515   0.80570   0.80632   0.81561   0.81922
 Alpha virt. eigenvalues --    0.82356   0.83198   0.83667   0.84190   0.85043
 Alpha virt. eigenvalues --    0.85676   0.86347   0.86813   0.88037   0.88473
 Alpha virt. eigenvalues --    0.88875   0.89420   0.90163   0.90871   0.91063
 Alpha virt. eigenvalues --    0.91112   0.92281   0.92616   0.93320   0.93678
 Alpha virt. eigenvalues --    0.94177   0.94723   0.95231   0.95582   0.96622
 Alpha virt. eigenvalues --    0.97135   0.97273   0.98183   0.98770   0.99760
 Alpha virt. eigenvalues --    1.00390   1.01413   1.02422   1.02748   1.03227
 Alpha virt. eigenvalues --    1.04250   1.04691   1.04919   1.05167   1.06316
 Alpha virt. eigenvalues --    1.06940   1.07538   1.07585   1.08519   1.10107
 Alpha virt. eigenvalues --    1.10416   1.10636   1.11316   1.12104   1.13023
 Alpha virt. eigenvalues --    1.13445   1.14408   1.14879   1.15628   1.16568
 Alpha virt. eigenvalues --    1.16865   1.18299   1.19156   1.19252   1.20164
 Alpha virt. eigenvalues --    1.20895   1.21545   1.22479   1.23072   1.23482
 Alpha virt. eigenvalues --    1.23743   1.24328   1.25423   1.25678   1.26745
 Alpha virt. eigenvalues --    1.27806   1.27866   1.28301   1.28699   1.29354
 Alpha virt. eigenvalues --    1.29672   1.30044   1.31059   1.31457   1.31965
 Alpha virt. eigenvalues --    1.32143   1.32463   1.32994   1.34287   1.34785
 Alpha virt. eigenvalues --    1.35128   1.36235   1.37351   1.38067   1.38708
 Alpha virt. eigenvalues --    1.38939   1.39772   1.40881   1.41329   1.42476
 Alpha virt. eigenvalues --    1.43191   1.43967   1.44502   1.45867   1.46470
 Alpha virt. eigenvalues --    1.47779   1.48337   1.49015   1.49118   1.50010
 Alpha virt. eigenvalues --    1.50853   1.51073   1.52156   1.53182   1.53963
 Alpha virt. eigenvalues --    1.54365   1.55588   1.55846   1.56302   1.56976
 Alpha virt. eigenvalues --    1.57363   1.57776   1.58480   1.59055   1.59301
 Alpha virt. eigenvalues --    1.60104   1.60265   1.60800   1.61718   1.61828
 Alpha virt. eigenvalues --    1.62851   1.63602   1.64202   1.64521   1.64968
 Alpha virt. eigenvalues --    1.65635   1.65699   1.66761   1.67596   1.67702
 Alpha virt. eigenvalues --    1.68635   1.69078   1.69603   1.71017   1.71639
 Alpha virt. eigenvalues --    1.72153   1.72501   1.73191   1.74419   1.74911
 Alpha virt. eigenvalues --    1.75794   1.76199   1.76572   1.76775   1.77413
 Alpha virt. eigenvalues --    1.77958   1.78189   1.78918   1.79531   1.80788
 Alpha virt. eigenvalues --    1.80898   1.81146   1.83052   1.84468   1.85007
 Alpha virt. eigenvalues --    1.85363   1.86363   1.87771   1.89271   1.89593
 Alpha virt. eigenvalues --    1.90059   1.91103   1.92002   1.92128   1.92674
 Alpha virt. eigenvalues --    1.93816   1.94061   1.95336   1.96167   1.96990
 Alpha virt. eigenvalues --    1.98458   1.99028   2.00113   2.01205   2.01634
 Alpha virt. eigenvalues --    2.02914   2.03144   2.04421   2.05105   2.05437
 Alpha virt. eigenvalues --    2.06484   2.07103   2.07363   2.07991   2.08246
 Alpha virt. eigenvalues --    2.08854   2.09937   2.10651   2.11130   2.12137
 Alpha virt. eigenvalues --    2.12271   2.13249   2.14750   2.16411   2.17687
 Alpha virt. eigenvalues --    2.17886   2.18783   2.19950   2.20514   2.21151
 Alpha virt. eigenvalues --    2.21352   2.22122   2.23027   2.24470   2.24997
 Alpha virt. eigenvalues --    2.25191   2.25695   2.26306   2.26944   2.27135
 Alpha virt. eigenvalues --    2.27994   2.28711   2.29457   2.30770   2.32028
 Alpha virt. eigenvalues --    2.32459   2.33820   2.35166   2.35306   2.37459
 Alpha virt. eigenvalues --    2.37973   2.38883   2.39859   2.40891   2.41061
 Alpha virt. eigenvalues --    2.42480   2.42777   2.43467   2.44001   2.44523
 Alpha virt. eigenvalues --    2.45664   2.46892   2.47582   2.47736   2.48844
 Alpha virt. eigenvalues --    2.49346   2.50408   2.51345   2.51678   2.52200
 Alpha virt. eigenvalues --    2.53606   2.54314   2.54475   2.55217   2.55731
 Alpha virt. eigenvalues --    2.57262   2.57487   2.57920   2.58838   2.59273
 Alpha virt. eigenvalues --    2.59954   2.61094   2.61900   2.62123   2.62430
 Alpha virt. eigenvalues --    2.63595   2.63985   2.64331   2.64755   2.65259
 Alpha virt. eigenvalues --    2.66343   2.66882   2.67312   2.67577   2.67672
 Alpha virt. eigenvalues --    2.68451   2.69018   2.69165   2.69503   2.70090
 Alpha virt. eigenvalues --    2.70329   2.70536   2.71082   2.72247   2.73192
 Alpha virt. eigenvalues --    2.73414   2.73885   2.74698   2.75111   2.75619
 Alpha virt. eigenvalues --    2.75863   2.76276   2.76513   2.77313   2.78002
 Alpha virt. eigenvalues --    2.78406   2.79214   2.79596   2.80115   2.80432
 Alpha virt. eigenvalues --    2.81036   2.82095   2.82707   2.83274   2.83733
 Alpha virt. eigenvalues --    2.84605   2.84999   2.85788   2.86005   2.86362
 Alpha virt. eigenvalues --    2.87336   2.87491   2.88526   2.88638   2.89279
 Alpha virt. eigenvalues --    2.89761   2.89973   2.90995   2.91832   2.92817
 Alpha virt. eigenvalues --    2.93805   2.94900   2.95519   2.95682   2.96100
 Alpha virt. eigenvalues --    2.96794   2.97789   2.98331   2.99854   3.00273
 Alpha virt. eigenvalues --    3.00885   3.01630   3.02369   3.02838   3.03250
 Alpha virt. eigenvalues --    3.03711   3.04245   3.05245   3.05417   3.06143
 Alpha virt. eigenvalues --    3.06748   3.07410   3.07763   3.08661   3.08860
 Alpha virt. eigenvalues --    3.09726   3.10125   3.10368   3.10653   3.11244
 Alpha virt. eigenvalues --    3.12505   3.12608   3.13214   3.13948   3.14429
 Alpha virt. eigenvalues --    3.15344   3.15580   3.16037   3.16592   3.17008
 Alpha virt. eigenvalues --    3.17964   3.18589   3.19234   3.19833   3.19990
 Alpha virt. eigenvalues --    3.20305   3.20885   3.20993   3.21628   3.22453
 Alpha virt. eigenvalues --    3.23138   3.23299   3.25305   3.25403   3.25830
 Alpha virt. eigenvalues --    3.25939   3.26689   3.27098   3.27281   3.28021
 Alpha virt. eigenvalues --    3.28740   3.28988   3.29535   3.30744   3.31329
 Alpha virt. eigenvalues --    3.31404   3.31621   3.31815   3.32660   3.33088
 Alpha virt. eigenvalues --    3.33705   3.33965   3.34639   3.35363   3.36347
 Alpha virt. eigenvalues --    3.36656   3.37401   3.37999   3.38493   3.38725
 Alpha virt. eigenvalues --    3.39073   3.39637   3.39900   3.40649   3.40900
 Alpha virt. eigenvalues --    3.41105   3.41585   3.42280   3.42292   3.43801
 Alpha virt. eigenvalues --    3.44343   3.44962   3.45435   3.46267   3.46331
 Alpha virt. eigenvalues --    3.47201   3.47436   3.48317   3.48497   3.48961
 Alpha virt. eigenvalues --    3.49504   3.50415   3.50709   3.51311   3.52502
 Alpha virt. eigenvalues --    3.52924   3.53640   3.53988   3.54201   3.54598
 Alpha virt. eigenvalues --    3.54957   3.55946   3.57095   3.57842   3.58054
 Alpha virt. eigenvalues --    3.58708   3.59145   3.59295   3.60079   3.60805
 Alpha virt. eigenvalues --    3.62118   3.62522   3.63454   3.64541   3.65296
 Alpha virt. eigenvalues --    3.65704   3.66029   3.66816   3.67347   3.68421
 Alpha virt. eigenvalues --    3.69405   3.69835   3.70936   3.71522   3.71835
 Alpha virt. eigenvalues --    3.73823   3.75571   3.76793   3.77027   3.78154
 Alpha virt. eigenvalues --    3.78665   3.79682   3.81038   3.81534   3.82827
 Alpha virt. eigenvalues --    3.83685   3.85202   3.86918   3.88610   3.89200
 Alpha virt. eigenvalues --    3.89850   3.91645   3.92305   3.93632   3.95451
 Alpha virt. eigenvalues --    3.95655   3.96228   3.97296   3.98271   3.98999
 Alpha virt. eigenvalues --    4.00915   4.01794   4.03392   4.03991   4.04711
 Alpha virt. eigenvalues --    4.05200   4.05749   4.06254   4.06913   4.07795
 Alpha virt. eigenvalues --    4.08121   4.09008   4.09414   4.10449   4.12684
 Alpha virt. eigenvalues --    4.13126   4.14063   4.14126   4.15119   4.15469
 Alpha virt. eigenvalues --    4.16638   4.17954   4.18660   4.18761   4.19199
 Alpha virt. eigenvalues --    4.19624   4.19792   4.20061   4.20736   4.21175
 Alpha virt. eigenvalues --    4.21950   4.22501   4.23413   4.24044   4.25230
 Alpha virt. eigenvalues --    4.25467   4.26647   4.27442   4.28651   4.29072
 Alpha virt. eigenvalues --    4.29987   4.31106   4.32253   4.32890   4.34480
 Alpha virt. eigenvalues --    4.35117   4.36457   4.37230   4.38027   4.39605
 Alpha virt. eigenvalues --    4.39948   4.42602   4.43153   4.45021   4.45697
 Alpha virt. eigenvalues --    4.46886   4.47822   4.49562   4.50309   4.51462
 Alpha virt. eigenvalues --    4.52899   4.53319   4.54143   4.56248   4.56664
 Alpha virt. eigenvalues --    4.58718   4.59502   4.60972   4.62624   4.63987
 Alpha virt. eigenvalues --    4.64489   4.65898   4.66319   4.68018   4.71070
 Alpha virt. eigenvalues --    4.72250   4.74070   4.75826   4.77606   4.78701
 Alpha virt. eigenvalues --    4.79643   4.82144   4.83970   4.85396   4.85711
 Alpha virt. eigenvalues --    4.86611   4.87979   4.90431   4.91019   4.91773
 Alpha virt. eigenvalues --    4.92877   4.93803   4.96818   4.98256   5.03668
 Alpha virt. eigenvalues --    5.04592   5.09340   5.10552   5.13020   5.14744
 Alpha virt. eigenvalues --    5.18246   5.19803   5.21583   5.24445   5.30569
 Alpha virt. eigenvalues --    5.33655   5.34037   5.35379   5.39212   5.43478
 Alpha virt. eigenvalues --    5.49403   5.52683   5.54331   5.57946   5.65226
 Alpha virt. eigenvalues --    5.68824   5.71267   5.74479   6.04425  22.18013
 Alpha virt. eigenvalues --   22.37667  22.51551  22.54002  22.62887  22.66815
 Alpha virt. eigenvalues --   22.70912  22.71470  22.73718  22.76966  22.78033
 Alpha virt. eigenvalues --   22.84195  22.85468  22.89517  22.91822  22.95030
 Alpha virt. eigenvalues --   23.01438  23.14766  23.16814  23.19085  23.26655
 Alpha virt. eigenvalues --   23.40756  23.77428  23.94452
          Condensed to atoms (all electrons):
               1          2          3          4          5          6
     1  C    5.080430   0.009870  -0.066679   0.265233  -0.070231  -0.000322
     2  C    0.009870   5.158489   0.496992  -0.024485  -0.116819   0.386620
     3  C   -0.066679   0.496992   4.980173   0.527015  -0.044213  -0.025206
     4  C    0.265233  -0.024485   0.527015   4.931972   0.442832   0.001681
     5  C   -0.070231  -0.116819  -0.044213   0.442832   5.476196   0.000473
     6  H   -0.000322   0.386620  -0.025206   0.001681   0.000473   0.512079
     7  H   -0.006623  -0.029563   0.407257  -0.039476   0.009614  -0.003275
     8  H   -0.005771   0.000780   0.002981  -0.009241   0.363122   0.000084
     9  C    0.000792   0.490574  -0.055901  -0.035376  -0.026353  -0.027771
    10  C    0.015448  -0.038140  -0.049748  -0.040580   0.368285   0.009423
    11  C    0.000049   0.023803  -0.001667   0.001672   0.025015   0.002173
    12  C    0.000079  -0.124866   0.003121  -0.007669   0.033163   0.000828
    13  C    0.000000  -0.019383   0.000531  -0.000169  -0.001270   0.001931
    14  C   -0.000000   0.000452  -0.000126   0.000000   0.000073  -0.000224
    15  C    0.000000   0.000093  -0.000021   0.000016   0.000077   0.000035
    16  C    0.000001  -0.002439   0.000135   0.000039  -0.001621  -0.000058
    17  H   -0.000000   0.002511  -0.000263   0.000027  -0.000054   0.003867
    18  H   -0.000000   0.000011   0.000001  -0.000001   0.000001   0.000010
    19  H   -0.000000   0.000051  -0.000003   0.000002  -0.000022   0.000000
    20  C   -0.000011  -0.000017   0.000007  -0.000091   0.000973  -0.000001
    21  C    0.000051  -0.000183   0.000335   0.000581  -0.017225  -0.000003
    22  C   -0.000800   0.029475  -0.002088   0.009992  -0.152381  -0.000981
    23  C    0.000034  -0.000029  -0.000266   0.000017  -0.008329   0.000005
    24  C    0.000007  -0.000019   0.000015  -0.000042  -0.004007  -0.000002
    25  H    0.000092  -0.000329   0.000020  -0.000323  -0.004970   0.000001
    26  H   -0.000001   0.000067  -0.000035  -0.000031  -0.000068   0.000000
    27  H   -0.000004  -0.000042   0.000009   0.000001   0.000853  -0.000001
    28  H    0.000017  -0.000169   0.000002  -0.000415  -0.007957   0.000001
    29  H   -0.000000  -0.000003   0.000001   0.000001  -0.000035   0.000000
    30  H   -0.000000   0.000003  -0.000001   0.000007   0.000137   0.000000
    31  H   -0.000017  -0.000015   0.000022   0.000029   0.002107   0.000000
    32  H    0.000001   0.000001  -0.000001   0.000002   0.000113   0.000000
    33  C   -0.000000  -0.000000  -0.000000  -0.000000  -0.000000   0.000000
    34  C   -0.000000  -0.000000   0.000000  -0.000000  -0.000000  -0.000000
    35  C   -0.000000   0.000001  -0.000000   0.000000   0.000000   0.000000
    36  C    0.000000  -0.000012  -0.000001   0.000000   0.000001   0.000002
    37  C    0.000000   0.000001   0.000000  -0.000000   0.000000   0.000000
    38  C    0.000000   0.000000  -0.000000  -0.000000   0.000000  -0.000000
    39  H   -0.000000   0.000000  -0.000000   0.000000  -0.000000   0.000000
    40  H    0.000000   0.000000  -0.000000   0.000000   0.000000   0.000000
    41  H   -0.000000   0.000000   0.000000  -0.000000   0.000000   0.000000
    42  H   -0.000000   0.000000  -0.000000  -0.000000  -0.000000   0.000000
    43  H    0.000000   0.000000  -0.000000   0.000000   0.000000   0.000000
    44  H    0.434718  -0.000799   0.008834  -0.056864  -0.017013   0.000010
    45  H    0.430643   0.001581  -0.014297  -0.057809   0.016729  -0.000019
    46  H    0.395861  -0.000764  -0.002012  -0.028217  -0.005841   0.000017
               7          8          9         10         11         12
     1  C   -0.006623  -0.005771   0.000792   0.015448   0.000049   0.000079
     2  C   -0.029563   0.000780   0.490574  -0.038140   0.023803  -0.124866
     3  C    0.407257   0.002981  -0.055901  -0.049748  -0.001667   0.003121
     4  C   -0.039476  -0.009241  -0.035376  -0.040580   0.001672  -0.007669
     5  C    0.009614   0.363122  -0.026353   0.368285   0.025015   0.033163
     6  H   -0.003275   0.000084  -0.027771   0.009423   0.002173   0.000828
     7  H    0.514571  -0.000278   0.005039  -0.000032   0.000011   0.000197
     8  H   -0.000278   0.481940   0.001839  -0.023797   0.000850  -0.000929
     9  C    0.005039   0.001839   5.167068   0.316757  -0.133614   0.314394
    10  C   -0.000032  -0.023797   0.316757   5.444343   0.016573  -0.111566
    11  C    0.000011   0.000850  -0.133614   0.016573   5.551737   0.304791
    12  C    0.000197  -0.000929   0.314394  -0.111566   0.304791   5.157407
    13  C    0.000021   0.000044  -0.137137   0.023130  -0.016887   0.487093
    14  C    0.000001  -0.000004   0.007772  -0.001965  -0.057526  -0.059159
    15  C   -0.000000   0.000004  -0.009387   0.002553  -0.011315  -0.050998
    16  C    0.000000   0.000008   0.040334   0.028696   0.245271   0.005623
    17  H    0.000011   0.000001  -0.001771   0.001790   0.011763  -0.027256
    18  H    0.000000   0.000000   0.000152   0.000029  -0.000718   0.003802
    19  H    0.000000  -0.000001  -0.000700   0.000553  -0.013092  -0.005465
[...]
 1,0.00330410,0.00608887,0.01747071,0.02064429,-0.06036931,-0.01296982,
 -0.01099146,0.00086428,0.00090060,0.00005663,-0.00000574,-0.00094924,-
 0.00108773,0.00010696,0.00014582,-0.00010621,0.00082766,0.00016899,-0.
 00082794,0.05861617,0.00000245,-0.00000052,0.00000509,-0.00000352,-0.0
 0000698,0.00000485,-0.00000042,-0.00002068,-0.00000739,0.00000915,0.00
 000989,-0.00000358,-0.00000204,0.00001129,0.00000247,-0.00000293,0.000
 00166,-0.00000044,0.00000352,-0.00000005,-0.00000252,-0.00000062,-0.00
 000327,-0.00000119,-0.00001345,0.00001918,0.00001853,0.00001853,-0.000
 02881,-0.00001390,-0.00001605,-0.00001797,0.00000106,0.00000898,-0.000
 01121,-0.00000956,-0.00000623,0.00001571,-0.00000082,0.00001870,-0.000
 08277,0.00003044,-0.00030392,-0.00017982,-0.00019045,0.00010646,0.0000
 5244,0.00002290,0.00000966,0.00000202,-0.00000615,-0.00004464,0.000025
 87,0.00003376,-0.00002654,-0.00001363,0.00001515,0.00000012,-0.0000005
 2,0.00000520,0.00000224,0.00000222,-0.00001437,0.00000074,0.00001472,-
 0.00000071,0.00000363,0.00000029,0.00000696,-0.00000266,0.00000097,-0.
 00000535,0.00000203,-0.00000568,0.00000019,-0.00000321,0.00000620,-0.0
 0000158,0.00000356,0.00000166,0.00000314,0.00000124,-0.00000240,-0.000
 00088,0.00000066,0.00000421,-0.00000349,0.00000062,-0.00000744,-0.0000
 0022,0.00000231,-0.00000201,0.00000059,-0.00000239,-0.00000219,0.00000
 055,0.00096226,-0.00405841,-0.00898937,-0.00330928,0.00437665,-0.00301
 944,0.00015747,-0.00011971,0.00070867,0.00090083,0.00502461,-0.0035208
 1,-0.00193748,-0.00158369,-0.00543316,-0.01256306,-0.16423974,-0.14983
 718,0.00032514,-0.00197547,0.00233261,0.00009032,-0.00028088,-0.000464
 34,0.00012666,-0.00072371,0.00053165,0.00060443,-0.00211598,0.00231019
 ,0.01487232,0.16591899,0.00000437,-0.00000170,0.00000623,-0.00001279,-
 0.00001303,0.00000768,0.00000315,-0.00002372,-0.00001103,0.00000947,0.
 00001280,-0.00000387,-0.00000019,0.00001397,-0.00000032,-0.00000218,0.
 00000252,0.00000017,0.00000500,-0.00000110,-0.00000220,-0.00000080,-0.
 00000273,0.00000039,-0.00000623,0.00001940,-0.00000486,0.00001684,-0.0
 0002916,-0.00001388,0.00005979,-0.00004034,0.00000951,-0.00001065,-0.0
 0001307,0.00000360,0.00002972,-0.00000497,0.00002158,0.00006502,-0.000
 01683,-0.00008163,-0.00045207,-0.00048982,-0.00024122,0.00019699,0.000
 02683,-0.00017644,0.00002015,0.00000036,-0.00001190,0.00001875,-0.0000
 2154,-0.00004015,-0.00000843,0.00002159,-0.00002259,-0.00000316,0.0000
 0204,0.00000380,0.00000260,0.00000252,-0.00000742,0.00001593,0.0000174
 0,0.00000301,0.00000242,0.00000200,0.00000581,-0.00000147,0.00000035,-
 0.00000342,0.00000248,-0.00000570,-0.00000018,-0.00000501,0.00000336,-
 0.00000243,0.00000366,0.00000194,0.00000485,0.00000238,-0.00000218,-0.
 00000285,0.00000452,0.00000205,-0.00000164,0.00000037,-0.00000477,0.00
 000021,0.00000323,-0.00000227,-0.00000093,-0.00000344,-0.00000229,0.00
 000015,0.00164005,-0.00438408,-0.00245312,-0.00107869,-0.00330396,0.00
 361371,0.00009396,0.00078472,0.00017849,0.00341904,-0.00326116,0.00303
 741,-0.00300581,-0.00976266,-0.00799791,-0.01117322,-0.14993725,-0.216
 50933,-0.00061982,0.00216066,-0.00117826,0.00013069,-0.00023762,-0.000
 20316,-0.00011110,0.00051910,-0.00052028,-0.00019475,0.00247438,-0.001
 14832,0.01093424,0.16549954,0.22375072,-0.11188462,-0.10315880,-0.0581
 5241,-0.00017886,0.00103665,-0.00023792,-0.00249892,0.00125415,0.00180
 355,0.01091566,0.01825305,0.01052262,0.00067545,0.00119986,-0.00004258
 ,-0.00018421,0.00018030,0.00006925,0.00011308,0.00022793,0.00012890,-0
 .00012762,-0.00039462,-0.00012134,0.00027258,0.00031722,0.00006268,0.0
 0039000,-0.00025333,-0.00007462,-0.00000053,0.00005288,0.00001443,-0.0
 0001639,-0.00002493,-0.00008611,-0.00000653,0.00000441,-0.00000701,-0.
 00000032,-0.00002330,0.00001785,-0.00000750,0.00001994,0.00000710,0.00
 002303,-0.00002970,0.00000834,-0.00000498,-0.00000476,-0.00001259,-0.0
 0000014,-0.00000016,0.00000155,-0.00000357,0.00000107,0.00000267,0.000
 00326,-0.00000264,-0.00000035,0.00000897,-0.00001632,0.00000339,-0.000
 04363,-0.00002890,-0.00005854,-0.00000106,-0.00000729,0.00001165,-0.00
 001094,0.00000773,0.00000064,-0.00000363,-0.00000867,0.00001326,-0.000
 00010,0.00000224,-0.00000617,0.00001158,0.00000203,-0.00000435,-0.0000
 0700,0.00001237,-0.00000860,0.00000286,-0.00000025,-0.00000469,0.00000
 190,0.00000575,-0.00000472,0.00000100,-0.00002101,0.00000717,0.0000075
 5,-0.00000179,-0.00000165,-0.00000086,0.00000038,0.00000054,-0.0000001
 1,-0.00000148,-0.00000020,-0.00000153,0.00000129,0.00000296,-0.0000004
 7,-0.00000244,-0.00000884,-0.00000002,-0.00000010,0.00000029,0.0000001
 3,0.00000009,-0.00000099,0.00000029,-0.00000018,-0.00000027,-0.0000001
 0,0.00000020,0.00000027,-0.00000111,0.00000046,-0.00000061,-0.00000006
 ,0.,0.00000030,-0.00000018,-0.00000007,0.,0.12120088,-0.10055617,-0.19
 922799,-0.09021372,-0.00027527,-0.00085248,0.00052534,0.00291937,-0.00
 129223,-0.00271353,-0.00928694,-0.01722445,-0.00795306,-0.00178718,0.0
 0096470,0.00191630,0.00020703,-0.00021244,-0.00011400,0.00005728,0.000
 34019,-0.00020250,0.00021791,0.00070161,-0.00067637,0.00001404,0.00039
 225,0.00000829,0.00061811,-0.00051683,0.00031685,0.00006819,-0.0000454
 2,-0.00003721,-0.00001581,0.00007519,-0.00010625,-0.00001302,0.0000299
 8,0.00001663,0.00004933,0.00002802,-0.00001380,-0.00000318,-0.00003965
 ,-0.00000929,-0.00002021,0.00001887,0.00000832,-0.00000766,0.00001543,
 0.00000622,0.00000383,-0.00000491,-0.00000218,0.00001012,0.00000277,-0
 .00000666,-0.00001421,0.00000562,-0.00001571,0.00002724,-0.00001158,0.
 00001128,-0.00003702,0.00000983,0.00000843,0.00000563,-0.00000540,-0.0
 0006513,0.00002936,-0.00000943,0.00000908,-0.00000338,0.00000029,0.000
 00056,0.00000202,0.00000262,0.00000325,0.00000436,0.00000850,0.0000152
 5,0.00000348,-0.00001657,0.00000945,0.00000086,0.00000023,0.00000723,0
 .00000599,0.00000701,0.00000287,-0.00001014,0.00001819,-0.00000980,0.0
 0000475,0.00001219,0.00000030,0.00000873,-0.00000227,-0.00000460,-0.00
 000121,0.00000028,-0.00000319,0.00001009,-0.00000849,-0.00000854,-0.00
 002100,0.00000839,0.00001736,0.00001135,-0.00000049,-0.00000728,0.0000
 0135,0.00000061,0.00000412,0.00000133,-0.00000036,-0.00000078,0.000003
 31,0.00000032,-0.00000068,-0.00000371,-0.00000032,0.00000006,-0.000000
 81,0.00000288,0.00000344,0.00000096,-0.00000133,-0.00000145,0.10782401
 ,0.21724604,-0.05664042,-0.09052822,-0.10005760,-0.00067694,-0.0002330
 6,0.00083667,0.00226867,-0.00100616,-0.00093287,-0.00747352,-0.0091777
 1,-0.00640298,-0.00103131,-0.00043642,0.00120550,0.00008432,-0.0000932
 1,-0.00011886,-0.00020044,-0.00012104,-0.00010002,0.00059499,0.0003888
 7,-0.00027976,0.00035527,0.00036690,-0.00017542,0.00015611,-0.00030288
 ,-0.00011259,0.00011563,-0.00006192,-0.00007990,-0.00008935,0.00007310
 ,0.00008012,-0.00000334,0.00002013,0.00001338,0.00005680,0.00005466,-0
 .00003077,0.00001124,-0.00008337,-0.00002759,-0.00006870,0.00004697,0.
 00003737,0.00000190,0.00000666,0.00001013,0.00000361,-0.00000469,-0.00
 000282,0.00001318,0.00000192,-0.00000425,-0.00001625,0.00000939,-0.000
 00694,0.00003918,-0.00002514,0.00000802,-0.00002577,-0.00001231,-0.000
 01297,-0.00001963,-0.00000824,0.00000269,0.00004961,-0.00004109,-0.000
 01825,-0.00001916,0.00000984,-0.00001770,-0.00001028,0.00000606,0.0000
 0912,-0.00000811,0.00000973,0.00000114,0.00000129,-0.00000811,0.000003
 05,-0.00000956,0.00000233,0.00000976,0.00001003,0.00000892,-0.00000830
 ,-0.00001104,0.00002717,0.00001051,-0.00001049,0.00001335,0.00000678,0
 .00001134,-0.00000296,-0.00000625,-0.00000293,0.00000269,-0.00000382,0
 .00001372,-0.00000762,-0.00001156,-0.00003207,0.00001315,0.00002424,0.
 00001527,-0.00000172,-0.00001025,0.00000036,-0.00000029,0.00000602,0.0
 0000152,-0.00000056,-0.00000067,0.00000402,-0.00000017,-0.00000008,-0.
 00000285,-0.00000190,0.00000156,-0.00000098,0.00000298,0.00000322,0.00
 000129,-0.00000210,-0.00000205,0.06225543,0.10085104,0.10422798,-0.121
 28615,-0.07126298,0.09953381,-0.00046333,0.00037110,-0.00036104,0.0007
 0887,-0.00190259,-0.00132866,-0.01413573,-0.01037247,0.01444756,-0.001
 25677,0.00316517,0.00236523,0.00001372,0.00000257,0.00001677,0.0007499
 0,0.00035369,0.00033935,0.00032006,0.00015399,0.00009340,0.00023190,-0
 .00006772,-0.00005996,-0.00104675,-0.00035459,-0.00009119,-0.00009572,
 -0.00005232,0.00003490,0.00002879,0.00008405,0.00010842,-0.00001501,-0
 .00002888,-0.00000361,-0.00002472,0.00000903,0.00001338,-0.00000231,0.
 00000660,0.00000247,0.00001503,0.00005513,0.00002607,0.00000406,0.0000
 0405,0.00000264,-0.00000349,0.00000511,0.00000288,0.00000017,-0.000005
 38,0.00000053,0.00000311,0.00000042,0.00000886,0.00000144,0.00001175,-
 0.00001998,-0.00003934,0.00027962,0.00000049,0.00001424,0.00001503,0.0
 0003414,0.00000650,-0.00001255,-0.00001649,-0.00000328,0.00001101,-0.0
 0001756,-0.00001024,0.00000099,0.00001036,-0.00001963,-0.00000364,-0.0
 0000389,0.00001633,-0.00001298,0.00000012,-0.00000622,0.00000189,0.000
 00255,-0.00000480,-0.00001069,0.00000062,0.00000476,0.00002026,0.00000
 350,-0.00001580,-0.00000389,0.00000415,-0.00000610,0.00000206,0.000003
 00,0.00000188,0.00000099,0.00000229,-0.00000745,0.00000527,0.00000302,
 0.00001408,0.00000234,-0.00001315,-0.00000951,0.00000042,0.00000445,-0
 .00000086,-0.00000062,-0.00000193,-0.00000155,0.00000033,0.00000121,-0
 .00000221,-0.00000095,0.00000054,0.00000416,-0.00000042,0.00000155,0.0
 0000090,-0.00000230,-0.00000243,-0.00000083,0.00000135,0.00000204,-0.0
 0840861,-0.00649798,0.01098934,0.13247633,-0.07328849,-0.11326003,0.09
 221926,-0.00029201,0.00043327,-0.00002310,0.00121060,0.00073667,-0.000
 50456,0.01176294,0.01071374,-0.01574830,0.00142212,-0.00247723,-0.0012
 1831,-0.00002341,0.00001632,0.00005994,-0.00024011,-0.00026110,0.00028
 005,0.00021588,0.00016134,-0.00021993,0.00016604,0.00011342,-0.0002215
 9,0.00104575,0.00026240,0.00010101,0.00012059,0.00000015,-0.00007573,-
 0.00001535,-0.00001606,0.00015333,0.00000325,0.00000881,0.00000320,0.0
 0001262,0.00001891,-0.00002148,0.00001669,-0.00003535,-0.00001344,-0.0
 0005934,0.00000342,-0.00003249,0.00000634,-0.00000889,0.00000679,0.000
 00085,-0.00000066,-0.00000117,0.00000411,0.00000061,-0.00000089,-0.000
 00918,0.00000649,-0.00000123,0.00001074,-0.00001603,0.00000878,0.00007
 142,-0.00022907,-0.00000529,-0.00003556,-0.00000636,0.00000027,0.00002
 536,-0.00002074,-0.00000784,-0.00000778,0.00000674,-0.00000798,-0.0000
 0131,0.00000272,0.00000137,-0.00000725,0.00000460,0.00000398,-0.000001
 27,0.00000048,0.00000907,-0.00000742,0.00000180,0.00000505,0.00000685,
 0.00000402,-0.00000421,-0.00000678,0.00001230,0.00000384,-0.00000510,0
 .00000562,0.00000204,0.00000286,-0.00000088,-0.00000227,-0.00000105,0.
 00000198,-0.00000042,0.00000418,-0.00000148,-0.00000472,-0.00000491,-0
 .00000143,0.00001553,0.00000266,0.00000020,-0.00000225,0.00000016,0.00
 000018,0.00000129,-0.00000009,-0.00000017,0.00000028,0.00000085,-0.000
 00045,-0.00000008,0.00000037,-0.00000089,0.00000118,-0.00000014,0.,0.0
 0000027,0.00000042,-0.00000034,-0.00000013,-0.01081900,-0.01111468,0.0
 1748257,0.07530194,0.12142749,0.10068792,0.09026868,-0.17695914,0.0004
 2445,-0.00026265,-0.00008211,0.00009019,0.00158046,0.00125341,0.006222
 57,0.00706040,-0.00920290,0.00112023,-0.00232750,-0.00082478,-0.000006
 59,-0.00000363,-0.00004310,-0.00041344,-0.00075462,-0.00018884,-0.0000
 6215,0.00011186,-0.00013799,-0.00040865,-0.00050244,0.00003868,0.00029
 380,0.00095119,0.00062156,0.00010680,0.00000169,-0.00006179,-0.0000989
 0,-0.00004172,0.00003897,0.00002786,0.00002245,-0.00000623,0.00003199,
 0.00001845,-0.00002037,0.00001590,-0.00004196,-0.00001805,-0.00005250,
 -0.00001814,-0.00000889,-0.00000073,-0.00000356,0.00000238,0.00000507,
 -0.00000710,-0.00000350,0.00000317,0.00000600,-0.00000078,-0.00000595,
 -0.00000055,-0.00001048,0.00000064,0.00000298,0.00001453,0.00001012,-0
 .00014112,-0.00006193,-0.00004819,-0.00000976,-0.00000789,0.00000615,-
 0.00000492,0.00000439,-0.00000030,-0.00001264,0.00000745,0.00000860,-0
 .00000117,-0.00000486,0.00000613,-0.00000105,-0.00000330,-0.00001438,0
 .00000215,0.00000027,0.00000616,-0.00000050,0.00000257,0.00000258,0.00
 000876,-0.00000173,-0.00000564,-0.00000582,-0.00000428,0.00000970,0.00
 000537,0.00000045,0.00001099,-0.00000381,-0.00000587,-0.00000464,0.000
 00095,-0.00000334,0.00001461,-0.00000716,-0.00000766,-0.00003161,0.000
 00528,0.00002600,0.00001679,-0.00000241,-0.00000893,0.00000001,0.00000
 052,0.00000519,0.00000255,-0.00000055,-0.00000174,0.00000380,0.0000010
 0,-0.00000018,-0.00000493,-0.00000098,-0.00000123,-0.00000137,0.000003
 68,0.00000332,0.00000142,-0.00000265,-0.00000352,-0.00837750,-0.007127
 04,0.01179465,-0.11165904,-0.09952837,0.18903401,-0.15144675,0.0640898
 5,-0.11552208,-0.00095761,0.00025204,0.00129373,0.00007825,-0.00179491
 ,-0.00024698,-0.01460805,0.00980719,-0.01108685,0.00006718,0.00120697,
 0.00118865,-0.00003324,0.00005648,0.00005449,-0.00012288,0.00015789,-0
 .00032555,-0.00052066,-0.00001156,-0.00057423,0.00060786,0.00062289,-0
 .00036810,0.00050592,-0.00057924,0.00096186,-0.00008963,0.00010189,0.0
 0006987,-0.00007280,0.00005924,-0.00001181,-0.00000508,-0.00008618,-0.
 00001304,-0.00008859,-0.00004697,0.00002781,0.00000045,0.00006509,0.00
 001741,0.00001093,0.00001887,-0.00006577,0.00000814,-0.00000811,-0.000
 00017,-0.00000708,0.00000893,0.00000541,-0.00001575,-0.00000436,0.0000
 0237,0.00000872,-0.00001293,0.00000679,-0.00003252,0.00006018,-0.00004
 023,-0.00000676,0.00002547,0.00004055,0.00000321,0.00000756,0.00001383
 ,-0.00001864,0.00001663,-0.00000264,0.00002098,-0.00001351,-0.00001814
 ,-0.00000279,0.00000386,0.00000270,-0.00000963,-0.00000441,0.00000613,
 0.00001123,-0.00000421,0.00001401,0.00000996,0.00000296,-0.00000017,-0
 .00001302,-0.00001761,0.00001025,0.00000992,0.00000211,-0.00001282,-0.
 00000390,-0.00001109,0.00000170,-0.00001484,0.00000393,0.00000914,0.00
 000322,-0.00000020,0.00000632,-0.00001577,0.00001205,0.00001212,0.0000
 4575,-0.00001427,-0.00001009,-0.00002503,-0.00000195,0.00001374,-0.000
 00320,0.00000232,-0.00000672,-0.00000207,0.00000082,0.00000104,-0.0000
 0479,0.,0.00000044,0.00000633,0.00000139,-0.00000111,0.00000177,-0.000
 00406,-0.00000547,-0.00000258,0.00000312,0.00000297,-0.01023465,0.0064
 4485,-0.01070097,0.01225020,-0.00659003,0.01206631,0.16470828,0.064670
 05,-0.08389621,0.07071773,-0.00111286,0.00032508,-0.00069291,0.0010606
 7,-0.00053045,-0.00156021,0.01437735,-0.00931719,0.01161595,-0.0016806
 0,0.00008630,0.00087570,0.00005012,-0.00009265,0.00001587,0.00015608,-
 0.00036485,0.00063189,0.00015397,0.00002594,0.00021898,0.00067288,0.00
 078271,-0.00002589,0.00025326,-0.00131385,-0.00108098,0.00014068,-0.00
 004621,-0.00007941,0.00001055,-0.00006762,0.00005277,-0.00001178,0.000
 09327,0.00001875,0.00011503,0.00004856,-0.00003744,-0.00000560,-0.0000
 9848,-0.00002097,-0.00005078,0.00000430,0.00006804,-0.00000880,0.00000
 025,-0.00000266,0.00000842,-0.00000982,-0.00000497,0.00001196,0.000006
 30,-0.00000157,-0.00000612,0.00000825,-0.00000467,-0.00001930,-0.00002
 113,0.00002081,-0.00008559,-0.00009919,-0.00004447,-0.00000383,0.00000
 522,-0.00001579,0.00000535,0.00000068,0.00000887,-0.00001277,0.0000151
 5,0.00001580,0.00000825,-0.00000637,0.00000310,-0.00000139,-0.00000094
 ,0.00000253,-0.00000550,-0.00000264,0.00000382,-0.00000025,-0.00000458
 ,0.00000194,0.00000141,0.00000930,0.00000004,-0.00000700,-0.00000026,-
 0.00000759,0.00001048,0.00000598,-0.00000198,0.00001600,-0.00000482,-0
 .00000964,-0.00000432,-0.00000010,-0.00000562,0.00001750,-0.00001326,-
 0.00001258,-0.00004939,0.00001408,0.00001527,0.00002780,0.00000114,-0.
 00001394,0.00000263,-0.00000242,0.00000815,0.00000260,-0.00000053,-0.0
 0000168,0.00000499,0.00000074,-0.00000076,-0.00000653,-0.00000088,-0.0
 0000024,-0.00000196,0.00000531,0.00000513,0.00000278,-0.00000336,-0.00
 000399,-0.01560424,0.01069526,-0.01723756,0.01072678,-0.00649184,0.010
 76198,-0.07382898,0.09025582,-0.11255894,0.06831472,-0.16469850,-0.000
 12209,0.00026166,-0.00047359,0.00022294,-0.00006857,0.00007822,0.01142
 548,-0.00683271,0.01262738,0.00047697,-0.00042044,-0.00037840,0.000010
 56,-0.00002719,0.00001657,-0.00017810,-0.00004496,0.00009045,0.0001046
 8,0.00019827,0.00012252,0.00015765,-0.00043861,-0.00012005,-0.00052104
 ,0.00043070,-0.00039431,0.00012269,-0.00005311,-0.00006197,-0.00017575
 ,0.00006220,0.00004878,0.00001881,0.00000406,-0.00001627,0.00004698,0.
 00003362,0.00000302,0.00002220,-0.00006738,-0.00003174,-0.00003364,0.0
 0002005,0.00008684,-0.00000678,0.00000279,-0.00000995,0.00000430,-0.00
 000514,-0.00000287,0.00000880,0.00000265,-0.00000219,-0.00000313,0.000
 00594,-0.00000119,-0.00001681,-0.00002397,0.00002586,0.00001395,-0.000
 01063,-0.00003061,0.00000352,0.00000537,-0.00001834,0.00000772,-0.0000
 0319,0.00000633,-0.00000604,0.00001272,0.00001244,0.00000650,-0.000006
 36,0.00000465,-0.00000339,-0.00000337,-0.00000185,-0.00000046,-0.00000
 486,0.00000015,-0.00000541,-0.00000197,0.00000222,0.00000260,0.0000027
 2,0.00000043,-0.00000567,0.00000655,-0.00000281,0.00000216,0.00000464,
 -0.00000149,0.00000965,-0.00000277,-0.00000472,-0.00000309,0.00000162,
 -0.00000163,0.00001067,-0.00000634,-0.00000796,-0.00003710,0.00001329,
 0.00000640,0.00001672,-0.00000328,-0.00000860,-0.00000149,-0.00000190,
 0.00000513,0.00000160,-0.00000012,-0.00000121,0.00000373,0.00000051,-0
 .00000031,-0.00000247,-0.00000049,-0.00000032,-0.00000058,0.00000297,0
 .00000176,0.00000129,-0.00000190,-0.00000242,-0.00772278,0.00555113,-0
 .00986770,-0.01448072,0.00728668,-0.01516244,0.12318330,-0.07419559,0.
 17816430\\0.00000408,-0.00000466,-0.00000023,-0.00000369,0.00000097,0.
 00000352,-0.00000034,-0.00000756,-0.00000081,0.00000123,0.00000677,0.0
 0000070,-0.00000415,0.00000231,0.00000272,0.00000073,0.00000050,0.0000
 0095,0.00000097,0.00000030,0.00000072,-0.00000009,-0.00000187,-0.00000
 066,0.00000727,0.00000168,-0.00000389,0.00000138,-0.00000328,-0.000000
 98,-0.00000796,-0.00000563,0.00000300,-0.00000265,0.00000954,0.0000045
 5,0.00000639,-0.00000495,-0.00000358,-0.00001054,-0.00000340,0.0000050
 5,0.00000943,0.00000614,-0.00000197,0.00000579,-0.00000260,-0.00000385
 ,0.00000123,-0.00000018,0.00000054,0.00000073,0.00000080,0.00000066,-0
 .00000273,-0.00000004,0.00000105,-0.00000211,0.00000175,0.00000322,-0.
 00000110,-0.00000036,-0.00000477,0.00000147,0.00000012,0.00000033,-0.0
 0000190,-0.00000226,0.00000165,0.00000192,0.00000159,-0.00000438,-0.00
 000037,-0.00000035,0.00000106,0.00000077,0.00000006,0.00000107,0.00000
 003,0.00000071,-0.00000156,0.00000028,0.00000208,-0.00000128,0.0000004
 0,-0.00000061,-0.00000153,-0.00000036,-0.00000053,-0.00000117,-0.00000
 143,-0.00000006,-0.00000014,-0.00000089,0.00000040,-0.00000097,-0.0000
 0106,0.00000076,0.00000091,0.00000332,0.00000058,-0.00000054,0.0000004
 7,0.00000124,0.00000075,-0.00000476,-0.00000029,0.00000100,-0.00000029
 ,-0.00000084,0.00000043,0.00000105,-0.00000130,-0.00000142,-0.00000034
 ,-0.00000010,-0.00000004,-0.00000095,0.00000024,-0.00000062,0.00000016
 ,-0.00000008,-0.00000100,0.00000095,-0.00000029,0.00000023,0.00000010,
 0.00000020,0.00000105,-0.00000129,0.00000098,0.00000039,0.00000008,0.0
 0000053,0.00000069,-0.00000126,0.00000102,-0.00000084\\\@
 The archive entry for this job was punched.


 WE HAVE SEEN THAT MAN ON THE AVERAGE DOES NOT LIVE ABOVE
 TWO-AND-TWENTY YEARS.  DURING THESE TWO AND TWENTY
 YEARS HE IS LIABLE TO TWO AND TWENTY THOUSAND EVILS,
 MANY OF WHICH ARE INCURABLE.  YET EVEN IN THIS DREADFUL STATE
 MEN STILL STRUT AND POSE ON THE STAGE OF LIFE.
 THEY MAKE LOVE AT THE RISK OF DESTRUCTION,
 INTRIGUE, CARRY ON WAR, AND FORM PROJECTS, JUST AS IF THEY
 WERE TO LIVE IN LUXURY AND HAPPINESS FOR A THOUSAND
 AGES.

                                              -- VOLTAIRE
 Job cpu time:       8 days 11 hours 34 minutes 33.1 seconds.
 Elapsed time:       0 days  6 hours 25 minutes 35.1 seconds.
 File lengths (MBytes):  RWF=   2341 Int=      0 D2E=      0 Chk=     62 Scr=      1
 Normal termination of Gaussian 16 at Wed Nov  1 12:53:12 2023.
