 Entering Gaussian System, Link 0=g16
 Input=ph_fluorene_methyl_1_1_m062x.com
 Output=ph_fluorene_methyl_1_1_m062x.log
 Initial command:
 /arc/software/Gaussian/g16.c01/l1.exe "/tmp/slurm/41780/Gau-111091.inp" -scrdir="/tmp/slurm/41780/"
 Entering Link 1 = /arc/software/Gaussian/g16.c01/l1.exe PID=    111092.
  
 Copyright (c) 1988-2019, Gaussian, Inc.  All Rights Reserved.
  
 This is part of the Gaussian(R) 16 program.  It is based on
 the Gaussian(R) 09 system (copyright 2009, Gaussian, Inc.),
 the Gaussian(R) 03 system (copyright 2003, Gaussian, Inc.),
 the Gaussian(R) 98 system (copyright 1998, Gaussian, Inc.),
 the Gaussian(R) 94 system (copyright 1995, Gaussian, Inc.),
 the Gaussian 92(TM) system (copyright 1992, Gaussian, Inc.),
 the Gaussian 90(TM) system (copyright 1990, Gaussian, Inc.),
 the Gaussian 88(TM) system (copyright 1988, Gaussian, Inc.),
 the Gaussian 86(TM) system (copyright 1986, Carnegie Mellon
 University), and the Gaussian 82(TM) system (copyright 1983,
 Carnegie Mellon University). Gaussian is a federally registered
 trademark of Gaussian, Inc.
  
 This software contains proprietary and confidential information,
 including trade secrets, belonging to Gaussian, Inc.
  
 This software is provided under written license and may be
 used, copied, transmitted, or stored only in accord with that
 written license.
  
 The following legend is applicable only to US Government
 contracts under FAR:
  
                    RESTRICTED RIGHTS LEGEND
  
 Use, reproduction and disclosure by the US Government is
 subject to restrictions as set forth in subparagraphs (a)
 and (c) of the Commercial Computer Software - Restricted
 Rights clause in FAR 52.227-19.
  
 Gaussian, Inc.
 340 Quinnipiac St., Bldg. 40, Wallingford CT 06492
  
  
 ---------------------------------------------------------------
 Warning -- This program may not be used in any manner that
 competes with the business of Gaussian, Inc. or will provide
 assistance to any competitor of Gaussian, Inc.  The licensee
 of this program is prohibited from giving any competitor of
 Gaussian, Inc. access to this program.  By using this program,
 the user acknowledges that Gaussian, Inc. is engaged in the
 business of creating and licensing software in the field of
 computational chemistry and represents and warrants to the
 licensee that it is not a competitor of Gaussian, Inc. and that
 it will not use this program in any manner prohibited above.
 ---------------------------------------------------------------
  

 Cite this work as:
 Gaussian 16, Revision C.01,
 M. J. Frisch, G. W. Trucks, H. B. Schlegel, G. E. Scuseria, 
 M. A. Robb, J. R. Cheeseman, G. Scalmani, V. Barone, 
 G. A. Petersson, H. Nakatsuji, X. Li, M. Caricato, A. V. Marenich, 
 J. Bloino, B. G. Janesko, R. Gomperts, B. Mennucci, H. P. Hratchian, 
 J. V. Ortiz, A. F. Izmaylov, J. L. Sonnenberg, D. Williams-Young, 
 F. Ding, F. Lipparini, F. Egidi, J. Goings, B. Peng, A. Petrone, 
 T. Henderson, D. Ranasinghe, V. G. Zakrzewski, J. Gao, N. Rega, 
 G. Zheng, W. Liang, M. Hada, M. Ehara, K. Toyota, R. Fukuda, 
 J. Hasegawa, M. Ishida, T. Nakajima, Y. Honda, O. Kitao, H. Nakai, 
 T. Vreven, K. Throssell, J. A. Montgomery, Jr., J. E. Peralta, 
 F. Ogliaro, M. J. Bearpark, J. J. Heyd, E. N. Brothers, K. N. Kudin, 
 V. N. Staroverov, T. A. Keith, R. Kobayashi, J. Normand, 
 K. Raghavachari, A. P. Rendell, J. C. Burant, S. S. Iyengar, 
 J. Tomasi, M. Cossi, J. M. Millam, M. Klene, C. Adamo, R. Cammi, 
 J. W. Ochterski, R. L. Martin, K. Morokuma, O. Farkas, 
 J. B. Foresman, and D. J. Fox, Gaussian, Inc., Wallingford CT, 2019.
 
 ******************************************
 Gaussian 16:  ES64L-G16RevC.01  3-Jul-2019
                14-Nov-2023 
 ******************************************
 %nprocshared=32
 Will use up to   32 processors via shared memory.
 %mem=8000MB
 %chk=ph_fluorene_methyl_1_1_m062x.chk
 -----------------------------------------
 # opt freq=noraman m062x def2tzvp pop=nbo
 -----------------------------------------
 1/18=20,19=15,26=3,38=1/1,3;
 2/9=110,12=2,17=6,18=5,40=1/2;
 3/5=44,7=101,11=2,25=1,30=1,71=1,74=-55/1,2,3;
 4//1;
 5/5=2,38=5/2;
 6/7=2,8=2,9=2,10=2,28=1,40=1/1,7;
 7//1,2,3,16;
 1/18=20,19=15,26=3/3(2);
 2/9=110/2;
 99//99;
 2/9=110/2;
 3/5=44,7=101,11=2,25=1,30=1,71=1,74=-55/1,2,3;
 4/5=5,16=3,69=1/1;
 5/5=2,38=5/2;
 7//1,2,3,16;
 1/18=20,19=15,26=3/3(-5);
 2/9=110/2;
 6/7=2,8=2,9=2,10=2,19=2,28=1,40=1/1,7;
 99/9=1/99;
 ------------
 Structure697
 ------------
 Symbolic Z-matrix:
 Charge =  0 Multiplicity = 1
 C                    -6.0151   -7.1174    9.4112 
 C                    -5.6553   -6.1446    8.477 
 C                    -4.662    -6.4144    7.534 
 C                    -4.0265   -7.6576    7.5232 
 H                    -6.7841   -6.9012    10.1373 
 H                    -6.1466   -5.1825    8.4847 
 H                    -3.2598   -7.8545    6.7888 
 C                    -5.3772   -8.3594    9.3973 
 C                    -4.3839   -8.6354    8.4576 
 C                    -4.667    -10.531    9.8218 
 C                    -5.5538   -9.5457    10.2481 
 C                    -6.4109   -9.7853    11.3207 
 C                    -6.3782   -11.0208   11.9684 
 C                    -5.4937   -12.03     11.5599 
 C                    -4.6404   -11.7654   10.4782 
 H                    -7.098    -9.0244    11.6582 
 H                    -7.0386   -11.1868   12.8063 
 H                    -3.9617   -12.5321   10.1374 
 C                    -2.3357   -10.0282   8.9766 
 C                    -3.8404   -10.0453   8.6399 
 C                    -4.0898   -10.9097   7.3876 
 H                    -5.1502   -10.9353   7.1322 
 H                    -3.555    -10.5217   6.5205 
 C                    -5.3995   -15.823    13.5649 
 C                    -6.6171   -15.1811   13.357 
 C                    -6.6449   -13.9497   12.7067 
 C                    -5.461    -13.3493   12.2573 
 C                    -4.2457   -14.0121   12.4758 
 C                    -4.2122   -15.2429   13.127 
 H                    -5.3758   -16.7781   14.0698 
 H                    -7.5366   -15.6365   13.6953 
 H                    -7.5965   -13.4672   12.5388 
 H                    -3.3171   -13.5648   12.1528 
 H                    -3.269    -15.7427   13.2939 
 H                    -4.3843   -5.6608    6.8113 
 H                    -2.1376   -9.4214    9.8615 
 H                    -1.7474   -9.6128    8.1582 
 H                    -1.9593   -11.0313   9.1782 
 H                    -3.7671   -11.9397   7.5414 
 

 GradGradGradGradGradGradGradGradGradGradGradGradGradGradGradGradGradGrad
 Berny optimization.
 Initialization pass.
                           ----------------------------
                           !    Initial Parameters    !
                           ! (Angstroms and Degrees)  !
 --------------------------                            --------------------------
 ! Name  Definition              Value          Derivative Info.                !
 --------------------------------------------------------------------------------
 ! R1    R(1,2)                  1.3959         estimate D2E/DX2                !
 ! R2    R(1,5)                  1.0795         estimate D2E/DX2                !
 ! R3    R(1,8)                  1.3963         estimate D2E/DX2                !
 ! R4    R(2,3)                  1.396          estimate D2E/DX2                !
 ! R5    R(2,6)                  1.0803         estimate D2E/DX2                !
 ! R6    R(3,4)                  1.3963         estimate D2E/DX2                !
 ! R7    R(3,35)                 1.0804         estimate D2E/DX2                !
 ! R8    R(4,7)                  1.0798         estimate D2E/DX2                !
 ! R9    R(4,9)                  1.3989         estimate D2E/DX2                !
 ! R10   R(8,9)                  1.3949         estimate D2E/DX2                !
 ! R11   R(8,11)                 1.4705         estimate D2E/DX2                !
 ! R12   R(9,20)                 1.522          estimate D2E/DX2                !
 ! R13   R(10,11)                1.3925         estimate D2E/DX2                !
 ! R14   R(10,15)                1.3983         estimate D2E/DX2                !
 ! R15   R(10,20)                1.5219         estimate D2E/DX2                !
 ! R16   R(11,12)                1.3937         estimate D2E/DX2                !
 ! R17   R(12,13)                1.3954         estimate D2E/DX2                !
 ! R18   R(12,16)                1.0793         estimate D2E/DX2                !
 ! R19   R(13,14)                1.4027         estimate D2E/DX2                !
 ! R20   R(13,17)                1.0797         estimate D2E/DX2                !
 ! R21   R(14,15)                1.4029         estimate D2E/DX2                !
 ! R22   R(14,27)                1.4926         estimate D2E/DX2                !
 ! R23   R(15,18)                1.0792         estimate D2E/DX2                !
 ! R24   R(19,20)                1.542          estimate D2E/DX2                !
 ! R25   R(19,36)                1.0911         estimate D2E/DX2                !
 ! R26   R(19,37)                1.0902         estimate D2E/DX2                !
 ! R27   R(19,38)                1.0902         estimate D2E/DX2                !
 ! R28   R(20,21)                1.542          estimate D2E/DX2                !
 ! R29   R(21,22)                1.091          estimate D2E/DX2                !
 ! R30   R(21,23)                1.0901         estimate D2E/DX2                !
 ! R31   R(21,39)                1.0903         estimate D2E/DX2                !
 ! R32   R(24,25)                1.3921         estimate D2E/DX2                !
 ! R33   R(24,29)                1.3921         estimate D2E/DX2                !
 ! R34   R(24,30)                1.0806         estimate D2E/DX2                !
 ! R35   R(25,26)                1.3928         estimate D2E/DX2                !
 ! R36   R(25,31)                1.0804         estimate D2E/DX2                !
 ! R37   R(26,27)                1.4014         estimate D2E/DX2                !
 ! R38   R(26,32)                1.0801         estimate D2E/DX2                !
 ! R39   R(27,28)                1.4014         estimate D2E/DX2                !
 ! R40   R(28,29)                1.3929         estimate D2E/DX2                !
 ! R41   R(28,33)                1.0801         estimate D2E/DX2                !
 ! R42   R(29,34)                1.0804         estimate D2E/DX2                !
 ! A1    A(2,1,5)              119.6167         estimate D2E/DX2                !
 ! A2    A(2,1,8)              119.7006         estimate D2E/DX2                !
 ! A3    A(5,1,8)              120.6827         estimate D2E/DX2                !
 ! A4    A(1,2,3)              120.0535         estimate D2E/DX2                !
 ! A5    A(1,2,6)              119.9109         estimate D2E/DX2                !
 ! A6    A(3,2,6)              120.0356         estimate D2E/DX2                !
 ! A7    A(2,3,4)              120.0777         estimate D2E/DX2                !
 ! A8    A(2,3,35)             119.9961         estimate D2E/DX2                !
 ! A9    A(4,3,35)             119.9262         estimate D2E/DX2                !
 ! A10   A(3,4,7)              119.3931         estimate D2E/DX2                !
 ! A11   A(3,4,9)              120.06           estimate D2E/DX2                !
 ! A12   A(7,4,9)              120.547          estimate D2E/DX2                !
 ! A13   A(1,8,9)              120.5312         estimate D2E/DX2                !
 ! A14   A(1,8,11)             131.0682         estimate D2E/DX2                !
 ! A15   A(9,8,11)             108.4006         estimate D2E/DX2                !
 ! A16   A(4,9,8)              119.5769         estimate D2E/DX2                !
 ! A17   A(4,9,20)             129.5144         estimate D2E/DX2                !
 ! A18   A(8,9,20)             110.9087         estimate D2E/DX2                !
 ! A19   A(11,10,15)           119.541          estimate D2E/DX2                !
 ! A20   A(11,10,20)           110.9676         estimate D2E/DX2                !
 ! A21   A(15,10,20)           129.4913         estimate D2E/DX2                !
 ! A22   A(8,11,10)            108.4952         estimate D2E/DX2                !
 ! A23   A(8,11,12)            131.1331         estimate D2E/DX2                !
 ! A24   A(10,11,12)           120.3717         estimate D2E/DX2                !
 ! A25   A(11,12,13)           119.6718         estimate D2E/DX2                !
 ! A26   A(11,12,16)           120.7259         estimate D2E/DX2                !
 ! A27   A(13,12,16)           119.602          estimate D2E/DX2                !
 ! A28   A(12,13,14)           121.1058         estimate D2E/DX2                !
 ! A29   A(12,13,17)           118.8176         estimate D2E/DX2                !
 ! A30   A(14,13,17)           120.0701         estimate D2E/DX2                !
 ! A31   A(13,14,15)           118.1877         estimate D2E/DX2                !
 ! A32   A(13,14,27)           120.907          estimate D2E/DX2                !
 ! A33   A(15,14,27)           120.9054         estimate D2E/DX2                !
 ! A34   A(10,15,14)           121.1219         estimate D2E/DX2                !
 ! A35   A(10,15,18)           119.3991         estimate D2E/DX2                !
 ! A36   A(14,15,18)           119.4731         estimate D2E/DX2                !
 ! A37   A(20,19,36)           111.1261         estimate D2E/DX2                !
 ! A38   A(20,19,37)           111.5244         estimate D2E/DX2                !
 ! A39   A(20,19,38)           111.5357         estimate D2E/DX2                !
 ! A40   A(36,19,37)           107.3948         estimate D2E/DX2                !
 ! A41   A(36,19,38)           107.4004         estimate D2E/DX2                !
 ! A42   A(37,19,38)           107.6445         estimate D2E/DX2                !
 ! A43   A(9,20,10)            101.2276         estimate D2E/DX2                !
 ! A44   A(9,20,19)            111.367          estimate D2E/DX2                !
 ! A45   A(9,20,21)            111.3624         estimate D2E/DX2                !
 ! A46   A(10,20,19)           111.3445         estimate D2E/DX2                !
 ! A47   A(10,20,21)           111.344          estimate D2E/DX2                !
 ! A48   A(19,20,21)           109.961          estimate D2E/DX2                !
 ! A49   A(20,21,22)           111.1293         estimate D2E/DX2                !
 ! A50   A(20,21,23)           111.5377         estimate D2E/DX2                !
 ! A51   A(20,21,39)           111.5404         estimate D2E/DX2                !
 ! A52   A(22,21,23)           107.3952         estimate D2E/DX2                !
 ! A53   A(22,21,39)           107.3693         estimate D2E/DX2                !
 ! A54   A(23,21,39)           107.6525         estimate D2E/DX2                !
 ! A55   A(25,24,29)           120.4555         estimate D2E/DX2                !
 ! A56   A(25,24,30)           119.7706         estimate D2E/DX2                !
 ! A57   A(29,24,30)           119.774          estimate D2E/DX2                !
 ! A58   A(24,25,26)           119.6603         estimate D2E/DX2                !
 ! A59   A(24,25,31)           120.2169         estimate D2E/DX2                !
 ! A60   A(26,25,31)           120.1225         estimate D2E/DX2                !
 ! A61   A(25,26,27)           120.7713         estimate D2E/DX2                !
 ! A62   A(25,26,32)           119.0201         estimate D2E/DX2                !
 ! A63   A(27,26,32)           120.2023         estimate D2E/DX2                !
 ! A64   A(14,27,26)           120.6624         estimate D2E/DX2                !
 ! A65   A(14,27,28)           120.6549         estimate D2E/DX2                !
 ! A66   A(26,27,28)           118.6828         estimate D2E/DX2                !
 ! A67   A(27,28,29)           120.7751         estimate D2E/DX2                !
 ! A68   A(27,28,33)           120.2018         estimate D2E/DX2                !
 ! A69   A(29,28,33)           119.0165         estimate D2E/DX2                !
 ! A70   A(24,29,28)           119.655          estimate D2E/DX2                !
 ! A71   A(24,29,34)           120.2123         estimate D2E/DX2                !
 ! A72   A(28,29,34)           120.1324         estimate D2E/DX2                !
 ! D1    D(5,1,2,3)            179.9963         estimate D2E/DX2                !
 ! D2    D(5,1,2,6)             -0.0036         estimate D2E/DX2                !
 ! D3    D(8,1,2,3)              0.0021         estimate D2E/DX2                !
 ! D4    D(8,1,2,6)           -179.9978         estimate D2E/DX2                !
 ! D5    D(2,1,8,9)             -0.0061         estimate D2E/DX2                !
 ! D6    D(2,1,8,11)          -179.9956         estimate D2E/DX2                !
 ! D7    D(5,1,8,9)            179.9998         estimate D2E/DX2                !
 ! D8    D(5,1,8,11)             0.0103         estimate D2E/DX2                !
 ! D9    D(1,2,3,4)              0.004          estimate D2E/DX2                !
 ! D10   D(1,2,3,35)           179.9949         estimate D2E/DX2                !
 ! D11   D(6,2,3,4)           -179.9961         estimate D2E/DX2                !
 ! D12   D(6,2,3,35)            -0.0052         estimate D2E/DX2                !
 ! D13   D(2,3,4,7)            179.9907         estimate D2E/DX2                !
 ! D14   D(2,3,4,9)             -0.0061         estimate D2E/DX2                !
 ! D15   D(35,3,4,7)            -0.0003         estimate D2E/DX2                !
 ! D16   D(35,3,4,9)          -179.9971         estimate D2E/DX2                !
 ! D17   D(3,4,9,8)              0.0021         estimate D2E/DX2                !
 ! D18   D(3,4,9,20)           179.9885         estimate D2E/DX2                !
 ! D19   D(7,4,9,8)           -179.9946         estimate D2E/DX2                !
 ! D20   D(7,4,9,20)            -0.0083         estimate D2E/DX2                !
 ! D21   D(1,8,9,4)              0.004          estimate D2E/DX2                !
 ! D22   D(1,8,9,20)          -179.9847         estimate D2E/DX2                !
 ! D23   D(11,8,9,4)           179.9956         estimate D2E/DX2                !
 ! D24   D(11,8,9,20)            0.0069         estimate D2E/DX2                !
 ! D25   D(1,8,11,10)         -179.9084         estimate D2E/DX2                !
 ! D26   D(1,8,11,12)            0.0823         estimate D2E/DX2                !
 ! D27   D(9,8,11,10)            0.1012         estimate D2E/DX2                !
 ! D28   D(9,8,11,12)         -179.9082         estimate D2E/DX2                !
 ! D29   D(4,9,20,10)          179.9129         estimate D2E/DX2                !
 ! D30   D(4,9,20,19)           61.4802         estimate D2E/DX2                !
 ! D31   D(4,9,20,21)          -61.657          estimate D2E/DX2                !
 ! D32   D(8,9,20,10)           -0.0998         estimate D2E/DX2                !
 ! D33   D(8,9,20,19)         -118.5325         estimate D2E/DX2                !
 ! D34   D(8,9,20,21)          118.3303         estimate D2E/DX2                !
 ! D35   D(15,10,11,8)         179.9492         estimate D2E/DX2                !
 ! D36   D(15,10,11,12)         -0.0427         estimate D2E/DX2                !
 ! D37   D(20,10,11,8)          -0.1698         estimate D2E/DX2                !
 ! D38   D(20,10,11,12)        179.8384         estimate D2E/DX2                !
 ! D39   D(11,10,15,14)          0.0612         estimate D2E/DX2                !
 ! D40   D(11,10,15,18)        179.1719         estimate D2E/DX2                !
 ! D41   D(20,10,15,14)       -179.7949         estimate D2E/DX2                !
 ! D42   D(20,10,15,18)         -0.6842         estimate D2E/DX2                !
 ! D43   D(11,10,20,9)           0.1641         estimate D2E/DX2                !
 ! D44   D(11,10,20,19)        118.6131         estimate D2E/DX2                !
 ! D45   D(11,10,20,21)       -118.2793         estimate D2E/DX2                !
 ! D46   D(15,10,20,9)        -179.97           estimate D2E/DX2                !
 ! D47   D(15,10,20,19)        -61.521          estimate D2E/DX2                !
 ! D48   D(15,10,20,21)         61.5866         estimate D2E/DX2                !
 ! D49   D(8,11,12,13)         179.9749         estimate D2E/DX2                !
 ! D50   D(8,11,12,16)          -0.216          estimate D2E/DX2                !
 ! D51   D(10,11,12,13)         -0.0354         estimate D2E/DX2                !
 ! D52   D(10,11,12,16)        179.7738         estimate D2E/DX2                !
 ! D53   D(11,12,13,14)          0.0972         estimate D2E/DX2                !
 ! D54   D(11,12,13,17)        179.1682         estimate D2E/DX2                !
 ! D55   D(16,12,13,14)       -179.7141         estimate D2E/DX2                !
 ! D56   D(16,12,13,17)         -0.6431         estimate D2E/DX2                !
 ! D57   D(12,13,14,15)         -0.0784         estimate D2E/DX2                !
 ! D58   D(12,13,14,27)        179.9054         estimate D2E/DX2                !
 ! D59   D(17,13,14,15)       -179.1377         estimate D2E/DX2                !
 ! D60   D(17,13,14,27)          0.846          estimate D2E/DX2                !
 ! D61   D(13,14,15,10)         -0.0012         estimate D2E/DX2                !
 ! D62   D(13,14,15,18)       -179.1113         estimate D2E/DX2                !
 ! D63   D(27,14,15,10)       -179.985          estimate D2E/DX2                !
 ! D64   D(27,14,15,18)          0.905          estimate D2E/DX2                !
 ! D65   D(13,14,27,26)         38.2273         estimate D2E/DX2                !
 ! D66   D(13,14,27,28)       -141.7658         estimate D2E/DX2                !
 ! D67   D(15,14,27,26)       -141.7894         estimate D2E/DX2                !
 ! D68   D(15,14,27,28)         38.2175         estimate D2E/DX2                !
 ! D69   D(36,19,20,9)          56.0984         estimate D2E/DX2                !
 ! D70   D(36,19,20,10)        -56.0719         estimate D2E/DX2                !
 ! D71   D(36,19,20,21)       -179.967          estimate D2E/DX2                !
 ! D72   D(37,19,20,9)         -63.6977         estimate D2E/DX2                !
 ! D73   D(37,19,20,10)       -175.868          estimate D2E/DX2                !
 ! D74   D(37,19,20,21)         60.2369         estimate D2E/DX2                !
 ! D75   D(38,19,20,9)         175.9091         estimate D2E/DX2                !
 ! D76   D(38,19,20,10)         63.7389         estimate D2E/DX2                !
 ! D77   D(38,19,20,21)        -60.1563         estimate D2E/DX2                !
 ! D78   D(9,20,21,22)         -56.0855         estimate D2E/DX2                !
 ! D79   D(9,20,21,23)          63.7222         estimate D2E/DX2                !
 ! D80   D(9,20,21,39)        -175.8621         estimate D2E/DX2                !
 ! D81   D(10,20,21,22)         56.0818         estimate D2E/DX2                !
 ! D82   D(10,20,21,23)        175.8895         estimate D2E/DX2                !
 ! D83   D(10,20,21,39)        -63.6948         estimate D2E/DX2                !
 ! D84   D(19,20,21,22)        179.9772         estimate D2E/DX2                !
 ! D85   D(19,20,21,23)        -60.215          estimate D2E/DX2                !
 ! D86   D(19,20,21,39)         60.2006         estimate D2E/DX2                !
 ! D87   D(29,24,25,26)         -0.0319         estimate D2E/DX2                !
 ! D88   D(29,24,25,31)        179.7792         estimate D2E/DX2                !
 ! D89   D(30,24,25,26)        179.9599         estimate D2E/DX2                !
 ! D90   D(30,24,25,31)         -0.229          estimate D2E/DX2                !
 ! D91   D(25,24,29,28)         -0.0447         estimate D2E/DX2                !
 ! D92   D(25,24,29,34)        179.7576         estimate D2E/DX2                !
 ! D93   D(30,24,29,28)        179.9635         estimate D2E/DX2                !
 ! D94   D(30,24,29,34)         -0.2342         estimate D2E/DX2                !
 ! D95   D(24,25,26,27)          0.0778         estimate D2E/DX2                !
 ! D96   D(24,25,26,32)        179.1684         estimate D2E/DX2                !
 ! D97   D(31,25,26,27)       -179.7334         estimate D2E/DX2                !
 ! D98   D(31,25,26,32)         -0.6428         estimate D2E/DX2                !
 ! D99   D(25,26,27,14)        179.9607         estimate D2E/DX2                !
 ! D100  D(25,26,27,28)         -0.0461         estimate D2E/DX2                !
 ! D101  D(32,26,27,14)          0.8808         estimate D2E/DX2                !
 ! D102  D(32,26,27,28)       -179.126          estimate D2E/DX2                !
 ! D103  D(14,27,28,29)        179.9616         estimate D2E/DX2                !
 ! D104  D(14,27,28,33)          0.9067         estimate D2E/DX2                !
 ! D105  D(26,27,28,29)         -0.0316         estimate D2E/DX2                !
 ! D106  D(26,27,28,33)       -179.0866         estimate D2E/DX2                !
 ! D107  D(27,28,29,24)          0.0768         estimate D2E/DX2                !
 ! D108  D(27,28,29,34)       -179.7257         estimate D2E/DX2                !
 ! D109  D(33,28,29,24)        179.1428         estimate D2E/DX2                !
 ! D110  D(33,28,29,34)         -0.6597         estimate D2E/DX2                !
 --------------------------------------------------------------------------------
 Trust Radius=3.00D-01 FncErr=1.00D-07 GrdErr=1.00D-06 EigMax=2.50D+02 EigMin=1.00D-04
 Number of steps in this run=    234 maximum allowed number of steps=    234.
 GradGradGradGradGradGradGradGradGradGradGradGradGradGradGradGradGradGrad

                          Input orientation:                          
 ---------------------------------------------------------------------
 Center     Atomic      Atomic             Coordinates (Angstroms)
 Number     Number       Type             X           Y           Z
 ---------------------------------------------------------------------
      1          6           0       -6.015100   -7.117400    9.411200
      2          6           0       -5.655300   -6.144600    8.477000
      3          6           0       -4.662000   -6.414400    7.534000
      4          6           0       -4.026500   -7.657600    7.523200
      5          1           0       -6.784100   -6.901200   10.137300
      6          1           0       -6.146600   -5.182500    8.484700
      7          1           0       -3.259800   -7.854500    6.788800
      8          6           0       -5.377200   -8.359400    9.397300
      9          6           0       -4.383900   -8.635400    8.457600
     10          6           0       -4.667000  -10.531000    9.821800
     11          6           0       -5.553800   -9.545700   10.248100
     12          6           0       -6.410900   -9.785300   11.320700
     13          6           0       -6.378200  -11.020800   11.968400
     14          6           0       -5.493700  -12.030000   11.559900
     15          6           0       -4.640400  -11.765400   10.478200
     16          1           0       -7.098000   -9.024400   11.658200
     17          1           0       -7.038600  -11.186800   12.806300
     18          1           0       -3.961700  -12.532100   10.137400
     19          6           0       -2.335700  -10.028200    8.976600
     20          6           0       -3.840400  -10.045300    8.639900
     21          6           0       -4.089800  -10.909700    7.387600
     22          1           0       -5.150200  -10.935300    7.132200
     23          1           0       -3.555000  -10.521700    6.520500
     24          6           0       -5.399500  -15.823000   13.564900
     25          6           0       -6.617100  -15.181100   13.357000
     26          6           0       -6.644900  -13.949700   12.706700
     27          6           0       -5.461000  -13.349300   12.257300
     28          6           0       -4.245700  -14.012100   12.475800
     29          6           0       -4.212200  -15.242900   13.127000
     30          1           0       -5.375800  -16.778100   14.069800
     31          1           0       -7.536600  -15.636500   13.695300
     32          1           0       -7.596500  -13.467200   12.538800
     33          1           0       -3.317100  -13.564800   12.152800
     34          1           0       -3.269000  -15.742700   13.293900
     35          1           0       -4.384300   -5.660800    6.811300
     36          1           0       -2.137600   -9.421400    9.861500
     37          1           0       -1.747400   -9.612800    8.158200
     38          1           0       -1.959300  -11.031300    9.178200
     39          1           0       -3.767100  -11.939700    7.541400
 ---------------------------------------------------------------------
                    Distance matrix (angstroms):
                    1          2          3          4          5
     1  C    0.000000
     2  C    1.395896   0.000000
     3  C    2.418464   1.395953   0.000000
     4  C    2.794797   2.419069   1.396253   0.000000
     5  H    1.079502   2.145514   3.393737   3.874276   0.000000
     6  H    2.149310   1.080311   2.150685   3.397856   2.468081
     7  H    3.874529   3.392963   2.143683   1.079788   4.953981
     8  C    1.396307   2.414463   2.786830   2.414366   2.157154
     9  C    2.423735   2.796591   2.421408   1.398903   3.404380
    10  C    3.693052   4.693158   4.709612   3.735001   4.213918
    11  C    2.609567   3.835959   4.238713   3.650020   2.918783
    12  C    3.304624   4.681053   5.362902   4.963212   3.139705
    13  C    4.680560   6.040678   6.620284   6.049910   4.526454
    14  C    5.387245   6.645925   6.959494   6.129070   5.476633
    15  C    4.963083   6.052125   6.107535   5.097344   5.326547
    16  H    3.139798   4.527103   5.454835   5.329210   2.630522
    17  H    5.397617   6.788235   7.498078   7.031298   5.055166
    18  H    5.836334   6.813616   6.685384   5.531635   6.298649
    19  C    4.711647   5.133390   4.533466   3.254369   5.560001
    20  C    3.727844   4.305329   3.883488   2.642492   4.559928
    21  C    4.709913   5.132617   4.533935   3.255541   5.557713
    22  H    4.529708   5.001442   4.564901   3.486961   5.289066
    23  H    5.098774   5.234325   4.372933   3.070959   6.051144
    24  C    9.665385  10.937257  11.199885  10.249928   9.657333
    25  C    8.997500  10.314931  10.704428   9.866483   8.885443
    26  C    7.611655   8.932483   9.352511   8.562430   7.503502
    27  C    6.873419   8.138558   8.428571   7.540885   6.915417
    28  C    7.749802   8.937278   9.073023   8.059526   7.904237
    29  C    9.114898  10.319113  10.460707   9.432594   9.226968
    30  H   10.744319  12.017856  12.273242  11.307613  10.723853
    31  H    9.656269  10.993912  11.457402  10.680752   9.462087
    32  H    7.252770   8.595752   9.132431   8.464786   7.038434
    33  H    7.507632   8.604537   8.618021   7.538664   7.777268
    34  H    9.849478  11.000931  11.051429   9.962110  10.024578
    35  H    3.397156   2.150363   1.080428   2.149891   4.284846
    36  H    4.532791   5.002846   4.564198   3.485194   5.293150
    37  H    5.100029   5.234666   4.371988   3.069255   6.052930
    38  H    5.641136   6.167004   5.596762   4.288845   6.423106
    39  H    5.639524   6.166347   5.597307   4.289988   6.420862
                    6          7          8          9         10
     6  H    0.000000
     7  H    4.283605   0.000000
     8  C    3.393746   3.397437   0.000000
     9  C    3.876901   2.158309   1.394940   0.000000
    10  C    5.708196   4.282867   2.323883   2.352549   0.000000
    11  C    4.743259   4.482114   1.470495   2.324479   1.392466
    12  C    5.412811   5.847695   2.607910   3.691658   2.417428
    13  C    6.802614   6.824817   3.833485   4.689678   2.788548
    14  C    7.534679   6.722240   4.261891   4.730669   2.439554
    15  C    7.041112   5.550934   3.648569   3.734370   1.398325
    16  H    5.073111   6.309636   2.918055   4.214439   3.398819
    17  H    7.451410   7.848176   4.730298   5.698093   3.868049
    18  H    7.843585   5.795319   4.467976   4.264300   2.145100
    19  C    6.184313   3.219534   3.494654   2.530687   2.530243
    20  C    5.384187   2.926307   2.403678   1.521987   1.521861
    21  C    6.183435   3.222066   3.492896   2.530580   2.530198
    22  H    5.993061   3.630821   3.437654   2.762868   2.762406
    23  H    6.251522   2.696866   4.033848   2.827996   3.483563
    24  C   11.814687  10.676649   8.548375   8.875672   6.523237
    25  C   11.132506  10.396720   7.984495   8.475700   6.158243
    26  C    9.743582   9.145048   6.618961   7.169990   4.891037
    27  C    9.022149   8.058697   5.752019   6.149692   3.808531
    28  C    9.874418   8.439787   6.535325   6.713712   4.397643
    29  C   11.247422   9.781017   7.915204   8.092702   5.773490
    30  H   12.893619  11.709870   9.628435   9.939025   7.587764
    31  H   11.763017  11.249457   8.723073   9.294537   7.021733
    32  H    9.336712   9.130820   6.394055   7.093891   4.958360
    33  H    9.577264   7.834750   6.239630   6.252324   4.057060
    34  H   11.955200  10.224486   8.610524   8.668709   6.416518
    35  H    2.476841   2.465223   3.867259   3.399787   5.732528
    36  H    5.994659   3.627119   3.440688   2.763077   2.762364
    37  H    6.251969   2.693368   4.035075   2.827735   3.483493
    38  H    7.226540   4.182414   4.343857   3.484004   2.827748
    39  H    7.225759   4.184808   4.342273   3.484001   2.827451
                   11         12         13         14         15
    11  C    0.000000
    12  C    1.393736   0.000000
    13  C    2.411429   1.395365   0.000000
    14  C    2.810014   2.436627   1.402746   0.000000
    15  C    2.411289   2.786624   2.407296   1.402929   0.000000
    16  H    2.155154   1.079343   2.144749   3.408383   3.865912
    17  H    3.382636   2.136637   1.079704   2.156668   3.392078
    18  H    3.386092   3.865707   3.387634   2.150031   1.079170
    19  C    3.493664   4.707554   5.126200   4.544624   3.253353
    20  C    2.402425   3.723138   4.297783   3.898568   2.641608
    21  C    3.490881   4.703303   5.121801   4.542477   3.253796
    22  H    3.435508   4.522764   4.990403   4.573936   3.484922
    23  H    4.340827   5.633859   6.156230   5.606164   4.288155
    24  C    7.101371   6.520214   5.154395   4.291357   5.154422
    25  C    6.523312   5.770935   4.392423   3.797503   4.884858
    26  C    5.160468   4.395222   3.032272   2.515086   3.708827
    27  C    4.302658   3.805473   2.519252   1.492645   2.519389
    28  C    5.159700   4.887554   3.708488   2.514975   3.032137
    29  C    6.522733   6.154868   4.884674   3.797469   4.392323
    30  H    8.181973   7.584737   6.210249   5.371960   6.210279
    31  H    7.274100   6.414239   5.062486   4.662640   5.807161
    32  H    4.979768   4.055342   2.791860   2.728655   3.985062
    33  H    4.978340   4.954655   3.984504   2.728503   2.791639
    34  H    7.273240   7.018238   5.806928   4.662637   5.062393
    35  H    5.317121   6.438423   7.700709   8.021638   7.125860
    36  H    3.440252   4.530208   4.997979   4.577419   3.484058
    37  H    4.342910   5.637322   6.159902   5.607957   4.287836
    38  H    4.033872   5.095053   5.226089   4.377428   3.068746
    39  H    4.031099   5.090602   5.221164   4.374659   3.068848
                   16         17         18         19         20
    16  H    0.000000
    17  H    2.449007   0.000000
    18  H    4.945015   4.289542   0.000000
    19  C    5.556806   6.174644   3.203256   0.000000
    20  C    4.556789   5.374979   2.905408   1.542006   0.000000
    21  C    5.553526   6.175315   3.195308   2.525635   1.541961
    22  H    5.284897   5.985375   3.604654   3.485119   2.186512
    23  H    6.417999   7.217278   4.158014   2.786155   2.190951
    24  C    7.262325   4.975588   4.964378   8.001192   7.750370
    25  C    6.404853   4.054055   4.943094   8.004416   7.505834
    26  C    5.056009   2.792586   3.976236   6.918165   6.296699
    27  C    4.662987   2.732513   2.722075   5.617846   5.160266
    28  C    5.803554   3.986457   2.781936   5.635952   5.532983
    29  C    7.011060   4.954123   4.043377   6.923884   6.876580
    30  H    8.300702   5.968582   5.957513   8.985769   8.784752
    31  H    6.932677   4.564883   5.922488   8.987131   8.395265
    32  H    4.556581   2.362844   4.455660   7.224404   6.404616
    33  H    5.929171   4.464472   2.354531   4.853754   5.000119
    34  H    7.903943   5.933284   4.555357   7.222578   7.378793
    35  H    6.493875   8.574498   7.645672   5.287671   4.781574
    36  H    5.290681   5.984002   3.616617   1.091099   2.186569
    37  H    6.420680   7.216586   4.164453   1.090153   2.190831
    38  H    6.048494   6.243923   2.679939   1.090197   2.191004
    39  H    6.044991   6.244097   2.669836   2.786133   2.191079
                   21         22         23         24         25
    21  C    0.000000
    22  H    1.091024   0.000000
    23  H    1.090146   1.757813   0.000000
    24  C    8.000929   8.082784   9.007193   0.000000
    25  C    7.763108   7.676376   8.821802   1.392052   0.000000
    26  C    6.637994   6.511205   7.718014   2.407651   1.392842
    27  C    5.616566   5.673680   6.673757   2.798713   2.429279
    28  C    5.961457   6.232085   6.937259   2.407645   2.786864
    29  C    7.192518   7.441296   8.146624   1.392104   2.416664
    30  H    8.985750   9.073009   9.972451   1.080602   2.144602
    31  H    8.602915   8.418460   9.669130   2.149182   1.080424
    32  H    6.735920   6.451839   7.824936   3.380752   2.136850
    33  H    5.509424   5.956589   6.406236   3.380811   3.866849
    34  H    7.675675   8.038442   8.556844   2.149167   3.395460
    35  H    5.288649   5.339469   4.939702  12.243858  11.767230
    36  H    3.485155   4.337826   3.792356   8.083047   8.090648
    37  H    2.786146   3.792193   2.602994   9.007598   9.041430
    38  H    2.785689   3.791725   3.141547   7.351088   7.508549
    39  H    1.090270   1.757620   1.760099   7.350327   7.242263
                   26         27         28         29         30
    26  C    0.000000
    27  C    1.401449   0.000000
    28  C    2.411093   1.401428   0.000000
    29  C    2.786942   2.429321   1.392858   0.000000
    30  H    3.386518   3.879315   3.386550   2.144685   0.000000
    31  H    2.148896   3.406940   3.867283   3.395515   2.472359
    32  H    1.080064   2.157198   3.395401   3.866856   4.270542
    33  H    3.395468   2.157236   1.080141   2.136888   4.270648
    34  H    3.867345   3.407017   2.149001   1.080408   2.472384
    35  H   10.419785   9.483208  10.092075  11.477557  13.314025
    36  H    6.994027   5.675671   5.687985   6.989801   9.072859
    37  H    7.967626   6.674944   6.651091   7.903306   9.972654
    38  H    6.551505   5.207291   4.998696   6.197270   8.284077
    39  H    6.245171   5.205380   5.373286   6.504473   8.283600
                   31         32         33         34         35
    31  H    0.000000
    32  H    2.459053   0.000000
    33  H    4.947265   4.297882   0.000000
    34  H    4.287751   4.947255   2.459201   0.000000
    35  H   12.523619  10.201096   9.599154  12.037969   0.000000
    36  H    9.081558   7.303152   4.879451   7.281502   5.337930
    37  H   10.022937   8.261842   5.834303   8.140415   4.938186
    38  H    8.527505   7.000376   4.136483   6.391525   6.350206
    39  H    8.108387   6.478547   4.910037   6.913911   6.351265
                   36         37         38         39
    36  H    0.000000
    37  H    1.757874   0.000000
    38  H    1.757973   1.759956   0.000000
    39  H    3.792093   3.142307   2.602392   0.000000
 Stoichiometry    C21H18
 Framework group  C1[X(C21H18)]
 Deg. of freedom   111
 Full point group                 C1      NOp   1
 Largest Abelian subgroup         C1      NOp   1
 Largest concise Abelian subgroup C1      NOp   1
                         Standard orientation:                         
 ---------------------------------------------------------------------
 Center     Atomic      Atomic             Coordinates (Angstroms)
 Number     Number       Type             X           Y           Z
 ---------------------------------------------------------------------
      1          6           0        3.511243   -1.869052   -0.202546
      2          6           0        4.869290   -1.548514   -0.163947
      3          6           0        5.269988   -0.219790   -0.013551
      4          6           0        4.313457    0.791141    0.098642
      5          1           0        3.209272   -2.898877   -0.319156
      6          1           0        5.609956   -2.330160   -0.250628
      7          1           0        4.635740    1.815153    0.214727
      8          6           0        2.557664   -0.855282   -0.090158
      9          6           0        2.951412    0.474434    0.060422
     10          6           0        0.600421    0.390321    0.044402
     11          6           0        1.088071   -0.906111   -0.098508
     12          6           0        0.208542   -1.980492   -0.219481
     13          6           0       -1.167860   -1.752416   -0.196141
     14          6           0       -1.685364   -0.456323   -0.054618
     15          6           0       -0.780526    0.609116    0.065038
     16          1           0        0.580278   -2.987289   -0.334163
     17          1           0       -1.836617   -2.593108   -0.304590
     18          1           0       -1.156004    1.613187    0.189398
     19          6           0        1.711694    2.413115   -0.992666
     20          6           0        1.740783    1.391250    0.161772
     21          6           0        1.704915    2.126548    1.516650
     22          1           0        1.724385    1.420318    2.348030
     23          1           0        2.560714    2.791597    1.633849
     24          6           0       -5.920784    0.231330    0.009421
     25          6           0       -5.393305   -0.892117    0.639849
     26          6           0       -4.018354   -1.113463    0.616935
     27          6           0       -3.158561   -0.217196   -0.032312
     28          6           0       -3.709399    0.908028   -0.660363
     29          6           0       -5.083810    1.133201   -0.641776
     30          1           0       -6.987306    0.404456    0.025538
     31          1           0       -6.046092   -1.587685    1.147166
     32          1           0       -3.618867   -1.981174    1.120946
     33          1           0       -3.070958    1.606966   -1.180539
     34          1           0       -5.497795    2.001796   -1.133143
     35          1           0        6.321371    0.027250    0.016290
     36          1           0        1.735851    1.912386   -1.961781
     37          1           0        2.567992    3.086585   -0.952366
     38          1           0        0.809186    3.023993   -0.963739
     39          1           0        0.801798    2.728227    1.621781
 ---------------------------------------------------------------------
 Rotational constants (GHZ):           0.8963484           0.1547023           0.1379923
 Standard basis: def2TZVP (5D, 7F)
 There are   864 symmetry adapted cartesian basis functions of A   symmetry.
 There are   759 symmetry adapted basis functions of A   symmetry.
   759 basis functions,  1215 primitive gaussians,   864 cartesian basis functions
    72 alpha electrons       72 beta electrons
       nuclear repulsion energy      1490.5506412836 Hartrees.
 NAtoms=   39 NActive=   39 NUniq=   39 SFac= 1.00D+00 NAtFMM=   60 NAOKFM=F Big=F
 Integral buffers will be    131072 words long.
 Raffenetti 2 integral format.
 Two-electron integral symmetry is turned on.
 One-electron integrals computed using PRISM.
   1 Symmetry operations used in ECPInt.
 ECPInt:  NShTT=   46056 NPrTT=  140172 LenC2=   39389 LenP2D=   85806.
 LDataN:  DoStor=T MaxTD1= 6 Len=  172
 Number of processors reduced to  31 by ecpmxn.
 NBasis=   759 RedAO= T EigKep=  4.95D-06  NBF=   759
 NBsUse=   759 1.00D-06 EigRej= -1.00D+00 NBFU=   759
 ExpMin= 9.52D-02 ExpMax= 1.36D+04 ExpMxC= 4.63D+02 IAcc=3 IRadAn=         5 AccDes= 0.00D+00
 Harris functional with IExCor= 1009 and IRadAn=       5 diagonalized for initial guess.
 HarFok:  IExCor= 1009 AccDes= 0.00D+00 IRadAn=         5 IDoV= 1 UseB2=F ITyADJ=14
 ICtDFT=  3500011 ScaDFX=  1.000000  1.000000  1.000000  1.000000
 FoFCou: FMM=F IPFlag=           0 FMFlag=      100000 FMFlg1=           0
         NFxFlg=           0 DoJE=T BraDBF=F KetDBF=T FulRan=T
         wScrn=  0.000000 ICntrl=       500 IOpCl=  0 I1Cent=   200000004 NGrid=           0
         NMat0=    1 NMatS0=      1 NMatT0=    0 NMatD0=    1 NMtDS0=    0 NMtDT0=    0
 Petite list used in FoFCou.
 Requested convergence on RMS density matrix=1.00D-08 within 128 cycles.
 Requested convergence on MAX density matrix=1.00D-06.
 Requested convergence on             energy=1.00D-06.
 No special actions if energy rises.
 Integral accuracy reduced to 1.0D-05 until final iterations.
 Problem detected with inexpensive integrals.
 Switching to full accuracy and repeating last cycle.
 SCF Done:  E(RM062X) =  -811.043808609     A.U. after   13 cycles
            NFock= 13  Conv=0.89D-08     -V/T= 2.0054

 **********************************************************************

            Population analysis using the SCF Density.

 **********************************************************************

 Orbital symmetries:
       Occupied  (A) (A) (A) (A) (A) (A) (A) (A) (A) (A) (A) (A)
                 (A) (A) (A) (A) (A) (A) (A) (A) (A) (A) (A) (A)
                 (A) (A) (A) (A) (A) (A) (A) (A) (A) (A) (A) (A)
                 (A) (A) (A) (A) (A) (A) (A) (A) (A) (A) (A) (A)
                 (A) (A) (A) (A) (A) (A) (A) (A) (A) (A) (A) (A)
                 (A) (A) (A) (A) (A) (A) (A) (A) (A) (A) (A) (A)
       Virtual   (A) (A) (A) (A) (A) (A) (A) (A) (A) (A) (A) (A)
                 (A) (A) (A) (A) (A) (A) (A) (A) (A) (A) (A) (A)
                 (A) (A) (A) (A) (A) (A) (A) (A) (A) (A) (A) (A)
                 (A) (A) (A) (A) (A) (A) (A) (A) (A) (A) (A) (A)
                 (A) (A) (A) (A) (A) (A) (A) (A) (A) (A) (A) (A)
                 (A) (A) (A) (A) (A) (A) (A) (A) (A) (A) (A) (A)
                 (A) (A) (A) (A) (A) (A) (A) (A) (A) (A) (A) (A)
                 (A) (A) (A) (A) (A) (A) (A) (A) (A) (A) (A) (A)
                 (A) (A) (A) (A) (A) (A) (A) (A) (A) (A) (A) (A)
                 (A) (A) (A) (A) (A) (A) (A) (A) (A) (A) (A) (A)
                 (A) (A) (A) (A) (A) (A) (A) (A) (A) (A) (A) (A)
                 (A) (A) (A) (A) (A) (A) (A) (A) (A) (A) (A) (A)
                 (A) (A) (A) (A) (A) (A) (A) (A) (A) (A) (A) (A)
                 (A) (A) (A) (A) (A) (A) (A) (A) (A) (A) (A) (A)
                 (A) (A) (A) (A) (A) (A) (A) (A) (A) (A) (A) (A)
                 (A) (A) (A) (A) (A) (A) (A) (A) (A) (A) (A) (A)
                 (A) (A) (A) (A) (A) (A) (A) (A) (A) (A) (A) (A)
                 (A) (A) (A) (A) (A) (A) (A) (A) (A) (A) (A) (A)
                 (A) (A) (A) (A) (A) (A) (A) (A) (A) (A) (A) (A)
                 (A) (A) (A) (A) (A) (A) (A) (A) (A) (A) (A) (A)
                 (A) (A) (A) (A) (A) (A) (A) (A) (A) (A) (A) (A)
                 (A) (A) (A) (A) (A) (A) (A) (A) (A) (A) (A) (A)
                 (A) (A) (A) (A) (A) (A) (A) (A) (A) (A) (A) (A)
                 (A) (A) (A) (A) (A) (A) (A) (A) (A) (A) (A) (A)
                 (A) (A) (A) (A) (A) (A) (A) (A) (A) (A) (A) (A)
                 (A) (A) (A) (A) (A) (A) (A) (A) (A) (A) (A) (A)
                 (A) (A) (A) (A) (A) (A) (A) (A) (A) (A) (A) (A)
                 (A) (A) (A) (A) (A) (A) (A) (A) (A) (A) (A) (A)
                 (A) (A) (A) (A) (A) (A) (A) (A) (A) (A) (A) (A)
                 (A) (A) (A) (A) (A) (A) (A) (A) (A) (A) (A) (A)
                 (A) (A) (A) (A) (A) (A) (A) (A) (A) (A) (A) (A)
                 (A) (A) (A) (A) (A) (A) (A) (A) (A) (A) (A) (A)
                 (A) (A) (A) (A) (A) (A) (A) (A) (A) (A) (A) (A)
                 (A) (A) (A) (A) (A) (A) (A) (A) (A) (A) (A) (A)
                 (A) (A) (A) (A) (A) (A) (A) (A) (A) (A) (A) (A)
                 (A) (A) (A) (A) (A) (A) (A) (A) (A) (A) (A) (A)
                 (A) (A) (A) (A) (A) (A) (A) (A) (A) (A) (A) (A)
                 (A) (A) (A) (A) (A) (A) (A) (A) (A) (A) (A) (A)
                 (A) (A) (A) (A) (A) (A) (A) (A) (A) (A) (A) (A)
                 (A) (A) (A) (A) (A) (A) (A) (A) (A) (A) (A) (A)
                 (A) (A) (A) (A) (A) (A) (A) (A) (A) (A) (A) (A)
                 (A) (A) (A) (A) (A) (A) (A) (A) (A) (A) (A) (A)
                 (A) (A) (A) (A) (A) (A) (A) (A) (A) (A) (A) (A)
                 (A) (A) (A) (A) (A) (A) (A) (A) (A) (A) (A) (A)
                 (A) (A) (A) (A) (A) (A) (A) (A) (A) (A) (A) (A)
                 (A) (A) (A) (A) (A) (A) (A) (A) (A) (A) (A) (A)
                 (A) (A) (A) (A) (A) (A) (A) (A) (A) (A) (A) (A)
                 (A) (A) (A) (A) (A) (A) (A) (A) (A) (A) (A) (A)
                 (A) (A) (A) (A) (A) (A) (A) (A) (A) (A) (A) (A)
                 (A) (A) (A) (A) (A) (A) (A) (A) (A) (A) (A) (A)
                 (A) (A) (A) (A) (A) (A) (A) (A) (A) (A) (A) (A)
                 (A) (A) (A) (A) (A) (A) (A) (A) (A) (A) (A) (A)
                 (A) (A) (A) (A) (A) (A) (A) (A) (A) (A) (A) (A)
                 (A) (A) (A) (A) (A) (A) (A) (A) (A) (A) (A) (A)
                 (A) (A) (A) (A) (A) (A) (A) (A) (A) (A) (A) (A)
                 (A) (A) (A) (A) (A) (A) (A) (A) (A) (A) (A) (A)
                 (A) (A) (A) (A) (A) (A) (A) (A) (A) (A) (A) (A)
                 (A) (A) (A)
 The electronic state is 1-A.
 Alpha  occ. eigenvalues --  -10.56305 -10.55580 -10.55523 -10.54673 -10.54619
 Alpha  occ. eigenvalues --  -10.54547 -10.54508 -10.54423 -10.54415 -10.54388
 Alpha  occ. eigenvalues --  -10.54378 -10.54368 -10.54336 -10.54312 -10.54299
 Alpha  occ. eigenvalues --  -10.54287 -10.54245 -10.54165 -10.54151 -10.53098
 Alpha  occ. eigenvalues --  -10.53046  -1.00089  -0.97004  -0.94734  -0.91802
 Alpha  occ. eigenvalues --   -0.88388  -0.84926  -0.84641  -0.83733  -0.82797
 Alpha  occ. eigenvalues --   -0.80064  -0.78299  -0.73580  -0.71617  -0.69406
 Alpha  occ. eigenvalues --   -0.67961  -0.66387  -0.65482  -0.63605  -0.59869
 Alpha  occ. eigenvalues --   -0.58717  -0.55755  -0.55042  -0.53290  -0.52103
 Alpha  occ. eigenvalues --   -0.51910  -0.51090  -0.50610  -0.50376  -0.49680
 Alpha  occ. eigenvalues --   -0.48996  -0.48449  -0.48377  -0.46076  -0.45108
 Alpha  occ. eigenvalues --   -0.44944  -0.44678  -0.44039  -0.42282  -0.42213
 Alpha  occ. eigenvalues --   -0.40741  -0.40566  -0.40121  -0.39428  -0.37826
 Alpha  occ. eigenvalues --   -0.37803  -0.35124  -0.31034  -0.30868  -0.30420
 Alpha  occ. eigenvalues --   -0.30030  -0.26016
 Alpha virt. eigenvalues --   -0.02011   0.00832   0.01858   0.02632   0.03116
 Alpha virt. eigenvalues --    0.06090   0.07407   0.08202   0.08654   0.09295
 Alpha virt. eigenvalues --    0.09779   0.10834   0.11182   0.11476   0.12151
 Alpha virt. eigenvalues --    0.12878   0.13309   0.14098   0.14597   0.14891
 Alpha virt. eigenvalues --    0.15691   0.15957   0.16412   0.16669   0.17228
 Alpha virt. eigenvalues --    0.17863   0.18478   0.18714   0.19480   0.19858
 Alpha virt. eigenvalues --    0.19963   0.21279   0.22010   0.22568   0.22865
 Alpha virt. eigenvalues --    0.22930   0.23774   0.24055   0.24269   0.24686
 Alpha virt. eigenvalues --    0.25037   0.25338   0.25505   0.25913   0.25974
 Alpha virt. eigenvalues --    0.26651   0.26934   0.27227   0.27805   0.28153
 Alpha virt. eigenvalues --    0.29809   0.30290   0.30757   0.31370   0.31805
 Alpha virt. eigenvalues --    0.32290   0.33037   0.33291   0.33748   0.34106
 Alpha virt. eigenvalues --    0.34545   0.34960   0.35449   0.35567   0.36471
 Alpha virt. eigenvalues --    0.37043   0.37408   0.37628   0.37941   0.38256
 Alpha virt. eigenvalues --    0.38830   0.38856   0.39377   0.39866   0.40283
 Alpha virt. eigenvalues --    0.40638   0.41252   0.41789   0.42164   0.42616
 Alpha virt. eigenvalues --    0.43122   0.43181   0.43949   0.44312   0.44530
 Alpha virt. eigenvalues --    0.44633   0.45293   0.45787   0.45926   0.46123
 Alpha virt. eigenvalues --    0.46572   0.46944   0.47109   0.47342   0.47886
 Alpha virt. eigenvalues --    0.48583   0.49641   0.49985   0.50287   0.50669
 Alpha virt. eigenvalues --    0.51226   0.51404   0.51756   0.52689   0.52807
 Alpha virt. eigenvalues --    0.53180   0.54019   0.54622   0.54851   0.55263
 Alpha virt. eigenvalues --    0.55512   0.56418   0.57131   0.57420   0.57920
 Alpha virt. eigenvalues --    0.58397   0.59471   0.60107   0.61009   0.62613
 Alpha virt. eigenvalues --    0.62855   0.63224   0.63595   0.64391   0.65821
 Alpha virt. eigenvalues --    0.66107   0.66960   0.68098   0.68305   0.69266
 Alpha virt. eigenvalues --    0.69814   0.70556   0.71135   0.71386   0.72013
 Alpha virt. eigenvalues --    0.72122   0.72891   0.73519   0.74538   0.74751
 Alpha virt. eigenvalues --    0.75131   0.75602   0.75731   0.76305   0.76893
 Alpha virt. eigenvalues --    0.77817   0.77961   0.78347   0.79210   0.80193
 Alpha virt. eigenvalues --    0.80376   0.81389   0.81820   0.82702   0.83445
 Alpha virt. eigenvalues --    0.84062   0.85278   0.85333   0.86088   0.87564
 Alpha virt. eigenvalues --    0.87995   0.88772   0.89816   0.90242   0.90788
 Alpha virt. eigenvalues --    0.91412   0.91956   0.92470   0.93406   0.93708
 Alpha virt. eigenvalues --    0.94172   0.94694   0.95180   0.95317   0.96729
 Alpha virt. eigenvalues --    0.97154   0.97833   0.99406   0.99504   1.00728
 Alpha virt. eigenvalues --    1.01091   1.02221   1.02664   1.03339   1.04055
 Alpha virt. eigenvalues --    1.05226   1.05703   1.06016   1.06255   1.08434
 Alpha virt. eigenvalues --    1.09220   1.09357   1.10507   1.10932   1.12063
 Alpha virt. eigenvalues --    1.12287   1.13366   1.14153   1.15374   1.15543
 Alpha virt. eigenvalues --    1.16270   1.17737   1.17982   1.18913   1.20667
 Alpha virt. eigenvalues --    1.21653   1.22392   1.23539   1.23759   1.24398
 Alpha virt. eigenvalues --    1.24634   1.25534   1.26311   1.26655   1.26896
 Alpha virt. eigenvalues --    1.28781   1.29118   1.29242   1.29939   1.30555
 Alpha virt. eigenvalues --    1.31083   1.31883   1.32542   1.33670   1.34618
 Alpha virt. eigenvalues --    1.35183   1.36146   1.36749   1.37542   1.38502
 Alpha virt. eigenvalues --    1.38925   1.40055   1.40694   1.42376   1.43239
 Alpha virt. eigenvalues --    1.43844   1.44017   1.45989   1.46513   1.47123
 Alpha virt. eigenvalues --    1.47395   1.48181   1.49116   1.50611   1.50957
 Alpha virt. eigenvalues --    1.51627   1.52574   1.53827   1.54314   1.54504
 Alpha virt. eigenvalues --    1.55250   1.55687   1.56272   1.56936   1.58476
 Alpha virt. eigenvalues --    1.58857   1.59491   1.59709   1.60270   1.60908
 Alpha virt. eigenvalues --    1.61830   1.61924   1.62720   1.63204   1.64193
 Alpha virt. eigenvalues --    1.64633   1.65451   1.66292   1.67044   1.67611
 Alpha virt. eigenvalues --    1.67947   1.69382   1.69571   1.70376   1.70429
 Alpha virt. eigenvalues --    1.71305   1.73376   1.74413   1.74863   1.75132
 Alpha virt. eigenvalues --    1.75729   1.76414   1.76918   1.76953   1.77459
 Alpha virt. eigenvalues --    1.78535   1.79695   1.80031   1.81177   1.82192
 Alpha virt. eigenvalues --    1.82857   1.84092   1.85193   1.85737   1.88634
 Alpha virt. eigenvalues --    1.89989   1.90422   1.90552   1.91538   1.91719
 Alpha virt. eigenvalues --    1.92928   1.93686   1.95038   1.96288   1.97877
 Alpha virt. eigenvalues --    1.98740   1.99680   2.02717   2.03918   2.04710
 Alpha virt. eigenvalues --    2.05615   2.05972   2.07130   2.08082   2.08196
 Alpha virt. eigenvalues --    2.08837   2.09171   2.10166   2.11230   2.12422
 Alpha virt. eigenvalues --    2.14525   2.14876   2.15227   2.15717   2.16477
 Alpha virt. eigenvalues --    2.17128   2.17934   2.18296   2.19673   2.20559
 Alpha virt. eigenvalues --    2.21219   2.22100   2.23629   2.24276   2.25042
 Alpha virt. eigenvalues --    2.26279   2.26526   2.27129   2.27325   2.27882
 Alpha virt. eigenvalues --    2.28054   2.30012   2.30833   2.32652   2.32849
 Alpha virt. eigenvalues --    2.33880   2.35579   2.37045   2.37246   2.38223
 Alpha virt. eigenvalues --    2.39171   2.41373   2.42077   2.43423   2.44702
 Alpha virt. eigenvalues --    2.45065   2.45679   2.47257   2.47418   2.48031
 Alpha virt. eigenvalues --    2.49530   2.50468   2.50564   2.51153   2.52437
 Alpha virt. eigenvalues --    2.53055   2.54539   2.55731   2.56392   2.56644
 Alpha virt. eigenvalues --    2.57081   2.58671   2.60220   2.60416   2.60976
 Alpha virt. eigenvalues --    2.62151   2.62251   2.63249   2.64474   2.65021
 Alpha virt. eigenvalues --    2.65494   2.66241   2.66386   2.66806   2.67277
 Alpha virt. eigenvalues --    2.67646   2.67943   2.68800   2.69546   2.69920
 Alpha virt. eigenvalues --    2.70147   2.71163   2.71359   2.72561   2.73280
 Alpha virt. eigenvalues --    2.73515   2.74255   2.74789   2.75380   2.75656
 Alpha virt. eigenvalues --    2.76119   2.76596   2.76942   2.77912   2.78519
 Alpha virt. eigenvalues --    2.79187   2.79395   2.80106   2.80443   2.81891
 Alpha virt. eigenvalues --    2.82108   2.82521   2.83372   2.83922   2.84108
 Alpha virt. eigenvalues --    2.84572   2.85389   2.86307   2.86825   2.87016
 Alpha virt. eigenvalues --    2.87728   2.89273   2.89454   2.89839   2.90462
 Alpha virt. eigenvalues --    2.91122   2.91684   2.92510   2.93284   2.94209
 Alpha virt. eigenvalues --    2.95771   2.96124   2.96372   2.98511   2.98571
 Alpha virt. eigenvalues --    2.99727   3.00930   3.02269   3.03125   3.03773
 Alpha virt. eigenvalues --    3.04337   3.05094   3.05364   3.06277   3.07457
 Alpha virt. eigenvalues --    3.07956   3.08650   3.09116   3.09916   3.10767
 Alpha virt. eigenvalues --    3.11147   3.12201   3.12917   3.14606   3.14795
 Alpha virt. eigenvalues --    3.15486   3.15658   3.15865   3.16210   3.16415
 Alpha virt. eigenvalues --    3.17800   3.18428   3.18946   3.19311   3.19756
 Alpha virt. eigenvalues --    3.19905   3.20605   3.21465   3.21863   3.22667
 Alpha virt. eigenvalues --    3.23767   3.24475   3.25106   3.25230   3.26240
 Alpha virt. eigenvalues --    3.26794   3.27761   3.28323   3.28584   3.29598
 Alpha virt. eigenvalues --    3.30308   3.30560   3.31071   3.31538   3.31990
 Alpha virt. eigenvalues --    3.32135   3.32941   3.33701   3.34591   3.35029
 Alpha virt. eigenvalues --    3.35562   3.36013   3.36126   3.36921   3.38053
 Alpha virt. eigenvalues --    3.38197   3.38549   3.39147   3.40246   3.40800
 Alpha virt. eigenvalues --    3.41650   3.41824   3.41936   3.42868   3.43859
 Alpha virt. eigenvalues --    3.44529   3.45732   3.46098   3.46593   3.46920
 Alpha virt. eigenvalues --    3.47201   3.48265   3.49513   3.50399   3.50678
 Alpha virt. eigenvalues --    3.51184   3.51812   3.52634   3.52761   3.53489
 Alpha virt. eigenvalues --    3.53740   3.54357   3.56063   3.56669   3.57291
 Alpha virt. eigenvalues --    3.57440   3.57881   3.59330   3.59792   3.60303
 Alpha virt. eigenvalues --    3.61460   3.61806   3.62889   3.63981   3.64842
 Alpha virt. eigenvalues --    3.65059   3.65596   3.68801   3.68913   3.70293
 Alpha virt. eigenvalues --    3.70736   3.71421   3.73556   3.74039   3.76071
 Alpha virt. eigenvalues --    3.77728   3.79158   3.79395   3.82237   3.82815
 Alpha virt. eigenvalues --    3.84475   3.86474   3.88346   3.88984   3.89577
 Alpha virt. eigenvalues --    3.91377   3.92262   3.93098   3.94448   3.95107
 Alpha virt. eigenvalues --    3.96754   3.97681   3.98188   4.00098   4.00810
 Alpha virt. eigenvalues --    4.02466   4.04118   4.04634   4.05995   4.07598
 Alpha virt. eigenvalues --    4.08755   4.09419   4.10162   4.11394   4.11942
 Alpha virt. eigenvalues --    4.12188   4.13102   4.13794   4.14525   4.15092
 Alpha virt. eigenvalues --    4.15888   4.16702   4.17202   4.18362   4.18428
 Alpha virt. eigenvalues --    4.18725   4.19167   4.19763   4.20305   4.20517
 Alpha virt. eigenvalues --    4.22781   4.23383   4.24235   4.25559   4.25623
 Alpha virt. eigenvalues --    4.28242   4.29155   4.29268   4.30346   4.32190
 Alpha virt. eigenvalues --    4.32299   4.33582   4.34559   4.35001   4.36469
 Alpha virt. eigenvalues --    4.38194   4.39552   4.39931   4.41254   4.43370
 Alpha virt. eigenvalues --    4.43918   4.45810   4.48723   4.50758   4.51697
 Alpha virt. eigenvalues --    4.54732   4.55565   4.56618   4.58352   4.58725
 Alpha virt. eigenvalues --    4.60206   4.61835   4.62744   4.65368   4.66091
 Alpha virt. eigenvalues --    4.70387   4.72191   4.72712   4.75267   4.76373
 Alpha virt. eigenvalues --    4.76541   4.77124   4.81719   4.83152   4.83685
 Alpha virt. eigenvalues --    4.85920   4.86099   4.86634   4.87798   4.89633
 Alpha virt. eigenvalues --    4.91968   4.95043   4.97385   5.02274   5.04155
 Alpha virt. eigenvalues --    5.07915   5.10598   5.14095   5.17664   5.19581
 Alpha virt. eigenvalues --    5.23280   5.26037   5.28187   5.31067   5.33448
 Alpha virt. eigenvalues --    5.36722   5.41793   5.42138   5.49401   5.52865
 Alpha virt. eigenvalues --    5.54096   5.57357   5.67551   5.69934   5.73110
 Alpha virt. eigenvalues --    6.02462  22.15353  22.35709  22.55854  22.61734
 Alpha virt. eigenvalues --   22.63395  22.68800  22.71310  22.74039  22.74686
 Alpha virt. eigenvalues --   22.79537  22.83094  22.88511  22.90540  22.93268
 Alpha virt. eigenvalues --   23.03611  23.11198  23.16194  23.22648  23.40441
 Alpha virt. eigenvalues --   23.74670  23.92655
          Condensed to atoms (all electrons):
               1          2          3          4          5          6
     1  C    5.147790   0.506168  -0.021121  -0.090735   0.388063  -0.034539
     2  C    0.506168   4.891457   0.514572  -0.020261  -0.026865   0.409509
     3  C   -0.021121   0.514572   4.882047   0.513863   0.002249  -0.032765
     4  C   -0.090735  -0.020261   0.513863   5.060434   0.000792   0.003554
     5  H    0.388063  -0.026865   0.002249   0.000792   0.513189  -0.003401
     6  H   -0.034539   0.409509  -0.032765   0.003554  -0.003401   0.513042
     7  H    0.000032   0.002759  -0.021977   0.385090   0.000067  -0.000335
     8  C    0.527975  -0.046713  -0.053669  -0.054412  -0.029350   0.004183
     9  C   -0.077618  -0.060303  -0.052641   0.532282   0.010253   0.002375
    10  C    0.032162  -0.001048  -0.000957   0.013677   0.001674   0.000024
    11  C   -0.136118   0.007977  -0.005439   0.025411  -0.000900  -0.000118
    12  C   -0.022854   0.000718  -0.000375   0.000605   0.002103   0.000040
    13  C    0.000688  -0.000096   0.000017   0.000035  -0.000218   0.000001
    14  C   -0.000072   0.000001  -0.000006   0.000068   0.000065  -0.000000
    15  C   -0.001602   0.000143  -0.000064  -0.001141  -0.000147   0.000001
    16  H    0.002561  -0.000254   0.000043  -0.000092   0.003524   0.000005
    17  H    0.000017   0.000001  -0.000000   0.000000   0.000006   0.000000
    18  H    0.000052  -0.000004   0.000004  -0.000025   0.000000   0.000000
    19  C    0.000748  -0.000527   0.001725  -0.012766   0.000031  -0.000003
    20  C    0.024729  -0.006056   0.011304  -0.130583  -0.000642   0.000014
    21  C    0.000995  -0.000555   0.001754  -0.012242   0.000031  -0.000003
    22  H    0.000285  -0.000160   0.000228  -0.001291   0.000007  -0.000002
    23  H    0.000092   0.000021  -0.000247  -0.000985   0.000002   0.000000
    24  C   -0.000000  -0.000000  -0.000000  -0.000000  -0.000000  -0.000000
    25  C    0.000000   0.000000  -0.000000   0.000000  -0.000000   0.000000
    26  C    0.000001   0.000000  -0.000000   0.000000   0.000000   0.000000
    27  C   -0.000013  -0.000000  -0.000000   0.000003   0.000001   0.000000
    28  C    0.000001  -0.000000   0.000000   0.000000   0.000000   0.000000
    29  C   -0.000000   0.000000  -0.000000  -0.000000  -0.000000   0.000000
    30  H    0.000000  -0.000000  -0.000000  -0.000000  -0.000000   0.000000
    31  H    0.000000   0.000000  -0.000000   0.000000   0.000000   0.000000
    32  H    0.000000  -0.000000  -0.000000  -0.000000   0.000000   0.000000
    33  H    0.000000  -0.000000  -0.000000   0.000000   0.000000   0.000000
    34  H    0.000000  -0.000000   0.000000   0.000000   0.000000   0.000000
    35  H    0.003819  -0.033875   0.411986  -0.036704  -0.000320  -0.003949
    36  H    0.000352  -0.000167   0.000224  -0.001078   0.000007  -0.000002
    37  H    0.000084   0.000029  -0.000246  -0.001203   0.000001   0.000000
    38  H   -0.000042   0.000009  -0.000009   0.000407  -0.000002   0.000000
    39  H   -0.000044   0.000009  -0.000009   0.000405  -0.000002   0.000000
               7          8          9         10         11         12
     1  C    0.000032   0.527975  -0.077618   0.032162  -0.136118  -0.022854
     2  C    0.002759  -0.046713  -0.060303  -0.001048   0.007977   0.000718
     3  C   -0.021977  -0.053669  -0.052641  -0.000957  -0.005439  -0.000375
     4  C    0.385090  -0.054412   0.532282   0.013677   0.025411   0.000605
     5  H    0.000067  -0.029350   0.010253   0.001674  -0.000900   0.002103
     6  H   -0.000335   0.004183   0.002375   0.000024  -0.000118   0.000040
     7  H    0.508663   0.013561  -0.036580   0.000132  -0.000780   0.000031
     8  C    0.013561   5.058295   0.356784  -0.057367   0.255136  -0.141913
     9  C   -0.036580   0.356784   5.481291  -0.096038  -0.036743   0.031732
    10  C    0.000132  -0.057367  -0.096038   5.610760   0.360099  -0.052498
    11  C   -0.000780   0.255136  -0.036743   0.360099   5.023195   0.532141
    12  C    0.000031  -0.141913   0.031732  -0.052498   0.532141   5.168022
    13  C   -0.000004   0.009554  -0.001592  -0.060179  -0.048457   0.480911
    14  C    0.000006  -0.006084  -0.000214  -0.022536  -0.044833  -0.025772
    15  C   -0.000016   0.033964   0.012113   0.349699  -0.028708  -0.115879
    16  H    0.000001  -0.004139   0.001385   0.011791  -0.023114   0.381592
    17  H    0.000000  -0.000063   0.000052   0.000611   0.002046  -0.020429
    18  H   -0.000004  -0.000639  -0.000114   0.001007   0.005882   0.000422
    19  C   -0.002176  -0.002980  -0.057905  -0.058938  -0.002996   0.000524
    20  C    0.006899  -0.004090   0.142909   0.137992  -0.051354   0.021072
    21  C   -0.002261  -0.001966  -0.067139  -0.064298  -0.003833   0.001016
    22  H    0.000096   0.002017  -0.020254  -0.019907   0.000523   0.000360
    23  H    0.000680   0.001167  -0.020142   0.025267  -0.001740  -0.000072
    24  C    0.000000  -0.000000   0.000000  -0.000086   0.000005  -0.000028
    25  C    0.000000  -0.000000   0.000000   0.000185  -0.000021  -0.000007
    26  C   -0.000000   0.000040  -0.000010  -0.000458   0.000004   0.002158
    27  C    0.000000  -0.001295   0.000541  -0.002445   0.004607   0.007631
    28  C   -0.000000   0.000024  -0.000020   0.007737  -0.000314  -0.000871
    29  C   -0.000000   0.000001  -0.000001  -0.000177  -0.000005   0.000087
    30  H    0.000000   0.000000  -0.000000  -0.000000   0.000000  -0.000000
    31  H    0.000000   0.000000  -0.000000   0.000002   0.000000  -0.000000
    32  H   -0.000000   0.000009  -0.000001   0.000052  -0.000096   0.000807
    33  H   -0.000000   0.000010  -0.000003   0.002483  -0.000207  -0.000117
    34  H   -0.000000   0.000000  -0.000000   0.000009  -0.000000  -0.000000
    35  H   -0.003465   0.001628   0.005336   0.000005   0.000111  -0.000001
    36  H    0.000098   0.002430  -0.021585  -0.020562   0.000566   0.000097
    37  H    0.000716   0.001457  -0.020276   0.024406  -0.001944  -0.000028
    38  H   -0.000073  -0.001972   0.022928  -0.022932   0.001472   0.000128
    39  H   -0.000065  -0.001913   0.023264  -0.022367   0.001529   0.000084
              13         14         15         16         17         18
     1  C    0.000688  -0.000072  -0.001602   0.002561   0.000017   0.000052
     2  C   -0.000096   0.000001   0.000143  -0.000254   0.000001  -0.000004
     3  C    0.000017  -0.000006  -0.000064   0.000043  -0.000000   0.000004
     4  C    0.000035   0.000068  -0.001141  -0.000092   0.000000  -0.000025
     5  H   -0.000218   0.000065  -0.000147   0.003524   0.000006   0.000000
     6  H    0.000001  -0.000000   0.000001   0.000005   0.000000   0.000000
     7  H   -0.000004   0.000006  -0.000016   0.000001   0.000000  -0.000004
     8  C    0.009554  -0.006084   0.033964  -0.004139  -0.000063  -0.000639
     9  C   -0.001592  -0.000214   0.012113   0.001385   0.000052  -0.000114
    10  C   -0.060179  -0.022536   0.349699   0.011791   0.000611   0.001007
    11  C   -0.048457  -0.044833  -0.028708  -0.023114   0.002046   0.005882
    12  C    0.480911  -0.025772  -0.115879   0.381592  -0.020429   0.000422
    13  C    5.011525   0.508320  -0.020066  -0.021393   0.393906   0.003845
    14  C    0.508320   4.947349   0.442739   0.001207  -0.036069  -0.006437
    15  C   -0.020066   0.442739   5.465690  -0.000334   0.008753   0.333710
    16  H   -0.021393   0.001207  -0.000334   0.509141  -0.002505   0.000058
    17  H    0.393906  -0.036069   0.008753  -0.002505   0.492364  -0.000259
    18  H    0.003845  -0.006437   0.333710   0.000058  -0.000259   0.472255
    19  C   -0.000346   0.000782  -0.007393   0.000028  -0.000000  -0.002554
    20  C   -0.002534   0.017869  -0.173114  -0.000529  -0.000024   0.010704
    21  C   -0.000453   0.001898  -0.013596   0.000031  -0.000005  -0.002122
    22  H   -0.000214   0.000205  -0.001286   0.000008  -0.000002   0.000088
    23  H    0.000016  -0.000022   0.000478  -0.000002   0.000000  -0.000019
    24  C    0.000025  -0.004348   0.000232   0.000000  -0.000069  -0.000041
    25  C    0.001546   0.006711  -0.000921  -0.000001   0.000714  -0.000133
    26  C   -0.002297  -0.076204   0.007746  -0.000000   0.003212  -0.000247
    27  C   -0.077487   0.250775  -0.060228  -0.000213  -0.001332  -0.000178
    28  C    0.009006  -0.077789  -0.005091   0.000041   0.000321   0.002155
    29  C   -0.000683   0.005210   0.001178  -0.000001  -0.000120   0.000741
    30  H   -0.000004   0.000132  -0.000011  -0.000000  -0.000000   0.000000
    31  H    0.000035   0.000012   0.000026   0.000000   0.000056   0.000001
    32  H    0.002563   0.006963   0.000003   0.000043  -0.001946   0.000023
    33  H    0.000346   0.006174   0.002089   0.000002   0.000050  -0.002911
    34  H    0.000032   0.000055   0.000018   0.000000   0.000002   0.000039
    35  H   -0.000000   0.000000  -0.000000  -0.000000  -0.000000  -0.000000
    36  H   -0.000061   0.000450  -0.001960   0.000006  -0.000001   0.000077
    37  H   -0.000003   0.000002   0.000488  -0.000002   0.000000  -0.000102
    38  H    0.000031  -0.000077  -0.001730   0.000002   0.000000   0.000631
    39  H    0.000069  -0.000130  -0.002065   0.000001   0.000001   0.000723
              19         20         21         22         23         24
     1  C    0.000748   0.024729   0.000995   0.000285   0.000092  -0.000000
     2  C   -0.000527  -0.006056  -0.000555  -0.000160   0.000021  -0.000000
     3  C    0.001725   0.011304   0.001754   0.000228  -0.000247  -0.000000
     4  C   -0.012766  -0.130583  -0.012242  -0.001291  -0.000985  -0.000000
     5  H    0.000031  -0.000642   0.000031   0.000007   0.000002  -0.000000
     6  H   -0.000003   0.000014  -0.000003  -0.000002   0.000000  -0.000000
     7  H   -0.002176   0.006899  -0.002261   0.000096   0.000680   0.000000
     8  C   -0.002980  -0.004090  -0.001966   0.002017   0.001167  -0.000000
     9  C   -0.057905   0.142909  -0.067139  -0.020254  -0.020142   0.000000
    10  C   -0.058938   0.137992  -0.064298  -0.019907   0.025267  -0.000086
    11  C   -0.002996  -0.051354  -0.003833   0.000523  -0.001740   0.000005
    12  C    0.000524   0.021072   0.001016   0.000360  -0.000072  -0.000028
    13  C   -0.000346  -0.002534  -0.000453  -0.000214   0.000016   0.000025
    14  C    0.000782   0.017869   0.001898   0.000205  -0.000022  -0.004348
    15  C   -0.007393  -0.173114  -0.013596  -0.001286   0.000478   0.000232
    16  H    0.000028  -0.000529   0.000031   0.000008  -0.000002   0.000000
    17  H   -0.000000  -0.000024  -0.000005  -0.000002   0.000000  -0.000069
    18  H   -0.002554   0.010704  -0.002122   0.000088  -0.000019  -0.000041
    19  C    5.157479   0.314729  -0.125456   0.013572  -0.009648  -0.000000
    20  C    0.314729   5.509463   0.336821  -0.001596  -0.033381  -0.000002
    21  C   -0.125456   0.336821   5.151406   0.404336   0.409358   0.000000
    22  H    0.013572  -0.001596   0.404336   0.505836  -0.023652  -0.000000
    23  H   -0.009648  -0.033381   0.409358  -0.023652   0.526442   0.000000
    24  C   -0.000000  -0.000002   0.000000  -0.000000   0.000000   4.876210
    25  C   -0.000000   0.000000   0.000000  -0.000000  -0.000000   0.525527
    26  C   -0.000002   0.000055  -0.000007   0.000001  -0.000000  -0.044911
    27  C    0.000012  -0.004140  -0.000199   0.000003   0.000004  -0.039452
    28  C   -0.000129   0.000523   0.000022  -0.000008  -0.000000  -0.045845
    29  C    0.000000   0.000001  -0.000001  -0.000000  -0.000000   0.524900
    30  H    0.000000   0.000000  -0.000000   0.000000   0.000000   0.410698
    31  H   -0.000000   0.000000  -0.000000  -0.000000   0.000000  -0.031263
    32  H   -0.000000   0.000014   0.000000  -0.000000  -0.000000   0.002513
    33  H   -0.000025   0.000214   0.000033  -0.000002  -0.000001   0.002519
    34  H   -0.000000   0.000001  -0.000000   0.000000   0.000000  -0.030907
    35  H    0.000014  -0.000014   0.000012   0.000004   0.000003  -0.000000
    36  H    0.404479   0.000141   0.013571  -0.000343  -0.000192  -0.000000
    37  H    0.408526  -0.031693  -0.009445  -0.000195   0.001716  -0.000000
    38  H    0.408282  -0.027180  -0.009630  -0.000190   0.000294   0.000000
    39  H   -0.009605  -0.027497   0.408537  -0.023336  -0.025359   0.000000
              25         26         27         28         29         30
     1  C    0.000000   0.000001  -0.000013   0.000001  -0.000000   0.000000
     2  C    0.000000   0.000000  -0.000000  -0.000000   0.000000  -0.000000
     3  C   -0.000000  -0.000000  -0.000000   0.000000  -0.000000  -0.000000
     4  C    0.000000   0.000000   0.000003   0.000000  -0.000000  -0.000000
     5  H   -0.000000   0.000000   0.000001   0.000000  -0.000000  -0.000000
     6  H    0.000000   0.000000   0.000000   0.000000   0.000000   0.000000
     7  H    0.000000  -0.000000   0.000000  -0.000000  -0.000000   0.000000
     8  C   -0.000000   0.000040  -0.001295   0.000024   0.000001   0.000000
     9  C    0.000000  -0.000010   0.000541  -0.000020  -0.000001  -0.000000
    10  C    0.000185  -0.000458  -0.002445   0.007737  -0.000177  -0.000000
    11  C   -0.000021   0.000004   0.004607  -0.000314  -0.000005   0.000000
    12  C   -0.000007   0.002158   0.007631  -0.000871   0.000087  -0.000000
    13  C    0.001546  -0.002297  -0.077487   0.009006  -0.000683  -0.000004
    14  C    0.006711  -0.076204   0.250775  -0.077789   0.005210   0.000132
    15  C   -0.000921   0.007746  -0.060228  -0.005091   0.001178  -0.000011
    16  H   -0.000001  -0.000000  -0.000213   0.000041  -0.000001  -0.000000
    17  H    0.000714   0.003212  -0.001332   0.000321  -0.000120  -0.000000
    18  H   -0.000133  -0.000247  -0.000178   0.002155   0.000741   0.000000
    19  C   -0.000000  -0.000002   0.000012  -0.000129   0.000000   0.000000
    20  C    0.000000   0.000055  -0.004140   0.000523   0.000001   0.000000
    21  C    0.000000  -0.000007  -0.000199   0.000022  -0.000001  -0.000000
    22  H   -0.000000   0.000001   0.000003  -0.000008  -0.000000   0.000000
    23  H   -0.000000  -0.000000   0.000004  -0.000000  -0.000000   0.000000
    24  C    0.525527  -0.044911  -0.039452  -0.045845   0.524900   0.410698
    25  C    4.899433   0.508537  -0.060154  -0.044664  -0.039005  -0.035041
    26  C    0.508537   5.018372   0.505553  -0.032030  -0.045411   0.004373
    27  C   -0.060154   0.505553   5.003694   0.496453  -0.055495   0.000947
    28  C   -0.044664  -0.032030   0.496453   5.016278   0.509856   0.004229
    29  C   -0.039005  -0.045411  -0.055495   0.509856   4.899329  -0.035155
    30  H   -0.035041   0.004373   0.000947   0.004229  -0.035155   0.517036
    31  H    0.408007  -0.031162   0.004847   0.000050   0.003510  -0.004061
    32  H   -0.020637   0.393439  -0.038335   0.005325  -0.000144  -0.000293
    33  H   -0.000127   0.004800  -0.038534   0.395676  -0.022866  -0.000292
    34  H    0.003501  -0.000013   0.004514  -0.030946   0.407845  -0.004062
    35  H    0.000000   0.000000   0.000000  -0.000000   0.000000  -0.000000
    36  H    0.000000  -0.000001  -0.000066   0.000024   0.000001  -0.000000
    37  H    0.000000   0.000000   0.000000   0.000000   0.000000  -0.000000
    38  H   -0.000000   0.000002   0.000014   0.000014  -0.000005  -0.000000
    39  H   -0.000000  -0.000002  -0.000003   0.000023  -0.000001  -0.000000
              31         32         33         34         35         36
     1  C    0.000000   0.000000   0.000000   0.000000   0.003819   0.000352
     2  C    0.000000  -0.000000  -0.000000  -0.000000  -0.033875  -0.000167
     3  C   -0.000000  -0.000000  -0.000000   0.000000   0.411986   0.000224
     4  C    0.000000  -0.000000   0.000000   0.000000  -0.036704  -0.001078
     5  H    0.000000   0.000000   0.000000   0.000000  -0.000320   0.000007
     6  H    0.000000   0.000000   0.000000   0.000000  -0.003949  -0.000002
     7  H    0.000000  -0.000000  -0.000000  -0.000000  -0.003465   0.000098
     8  C    0.000000   0.000009   0.000010   0.000000   0.001628   0.002430
     9  C   -0.000000  -0.000001  -0.000003  -0.000000   0.005336  -0.021585
    10  C    0.000002   0.000052   0.002483   0.000009   0.000005  -0.020562
    11  C    0.000000  -0.000096  -0.000207  -0.000000   0.000111   0.000566
    12  C   -0.000000   0.000807  -0.000117  -0.000000  -0.000001   0.000097
    13  C    0.000035   0.002563   0.000346   0.000032  -0.000000  -0.000061
    14  C    0.000012   0.006963   0.006174   0.000055   0.000000   0.000450
    15  C    0.000026   0.000003   0.002089   0.000018  -0.000000  -0.001960
    16  H    0.000000   0.000043   0.000002   0.000000  -0.000000   0.000006
    17  H    0.000056  -0.001946   0.000050   0.000002  -0.000000  -0.000001
    18  H    0.000001   0.000023  -0.002911   0.000039  -0.000000   0.000077
    19  C   -0.000000  -0.000000  -0.000025  -0.000000   0.000014   0.404479
    20  C    0.000000   0.000014   0.000214   0.000001  -0.000014   0.000141
    21  C   -0.000000   0.000000   0.000033  -0.000000   0.000012   0.013571
    22  H   -0.000000  -0.000000  -0.000002   0.000000   0.000004  -0.000343
    23  H    0.000000  -0.000000  -0.000001   0.000000   0.000003  -0.000192
    24  C   -0.031263   0.002513   0.002519  -0.030907  -0.000000  -0.000000
    25  C    0.408007  -0.020637  -0.000127   0.003501   0.000000   0.000000
    26  C   -0.031162   0.393439   0.004800  -0.000013   0.000000  -0.000001
    27  C    0.004847  -0.038335  -0.038534   0.004514   0.000000  -0.000066
    28  C    0.000050   0.005325   0.395676  -0.030946  -0.000000   0.000024
    29  C    0.003510  -0.000144  -0.022866   0.407845   0.000000   0.000001
    30  H   -0.004061  -0.000293  -0.000292  -0.004062  -0.000000  -0.000000
    31  H    0.509329  -0.003515   0.000064  -0.000284   0.000000  -0.000000
    32  H   -0.003515   0.488656  -0.000242   0.000064   0.000000  -0.000000
[...]
 96247,-0.01436749,0.01947037,0.00020768,0.00025266,-0.00032020,-0.0014
 3430,0.00011866,-0.00066697,-0.00104816,0.00044545,-0.00128323,0.00054
 238,-0.00043099,-0.00088638,0.00488892,-0.00344170,0.00055250,0.000287
 24,-0.00042553,-0.00008873,-0.00023967,-0.00002579,-0.00011179,0.00000
 734,-0.00000559,0.00002049,-0.00004367,-0.00001784,0.00001800,0.000008
 57,-0.00003069,0.00000982,-0.00019886,-0.00000496,0.00004288,0.0000000
 3,0.00000411,0.00002745,-0.00000085,-0.00000129,0.00000789,0.00000555,
 0.00000131,-0.00000978,-0.00012461,-0.00002887,0.00000099,-0.00073723,
 0.00014693,0.00097014,0.00003462,-0.00005555,0.00011853,-0.00001574,-0
 .00000600,-0.00000756,0.00001438,0.00001036,-0.00001117,0.00000058,-0.
 00000832,0.00000412,0.00000167,0.00000057,-0.00000286,0.00000112,-0.00
 001341,0.00000356,0.00000861,0.00004081,0.00001980,0.00000346,-0.00001
 096,0.00000715,-0.00000468,0.00000009,-0.00000282,-0.00000016,-0.00000
 220,0.00000193,-0.00000207,-0.00000239,0.00000149,0.00000285,0.0000043
 0,0.00000047,-0.00000545,0.00000327,-0.00000237,0.00000197,-0.00000205
 ,0.00000087,0.04700157,0.20256576,0.00584503,-0.00033960,0.00090014,0.
 00350992,0.01584059,-0.00992156,0.05943238,0.13760151,-0.17812950,0.00
 032193,-0.00179758,0.00354602,0.00020144,0.00077126,-0.00056293,-0.002
 02539,-0.00125411,-0.00101392,-0.00217409,-0.00069400,-0.00117957,-0.0
 0010470,-0.00100652,-0.00027414,0.00262768,0.00082796,0.00396239,-0.00
 001275,0.00000177,0.00001095,-0.00036166,-0.00014259,-0.00022717,0.000
 04320,0.00001865,-0.00001882,-0.00002145,-0.00003122,-0.00001479,-0.00
 002360,0.00000466,0.00001785,-0.00015164,-0.00004832,-0.00014524,0.000
 00504,0.00000041,0.00004852,0.00000618,0.00000416,-0.00000133,-0.00000
 312,0.00000299,-0.00000066,-0.00004278,0.00012853,-0.00001488,0.000202
 85,-0.00011328,0.00025517,-0.00000368,-0.00005060,-0.00002608,-0.00000
 395,-0.00000938,-0.00000273,0.00000709,-0.00001324,0.00000538,0.000001
 75,0.00000349,-0.00000061,0.00000019,-0.00000118,-0.00000623,-0.000002
 53,0.00001261,-0.00000611,0.00004506,0.00000848,0.00004328,-0.00000125
 ,0.00000113,-0.00000460,0.00000058,-0.00000395,-0.00000305,0.00000001,
 0.00000204,-0.00000019,0.00000093,0.00000196,-0.00000049,-0.00000332,-
 0.00000106,0.00000233,0.00000303,-0.00000085,0.00000483,-0.00000119,0.
 00000148,-0.00000003,-0.06730670,-0.14975497,0.18277261,-0.00012942,0.
 00004174,0.00000727,-0.00001618,-0.00005340,0.00003209,0.00003251,-0.0
 0002427,-0.00014141,0.00005291,0.00029369,0.00012150,-0.00001598,0.000
 00417,-0.00001530,0.00001046,-0.00000113,0.00001283,0.00000499,0.00000
 680,0.00002472,0.00013410,0.00028959,0.00008161,0.00122068,-0.00133562
 ,-0.00029083,0.00136370,-0.00019480,-0.00136529,0.00009572,0.00002519,
 0.00030913,-0.00012380,0.00001493,0.00002328,0.00000871,0.00004250,-0.
 00004157,-0.00000035,-0.00013696,0.00000222,0.00008700,-0.00001631,0.0
 0032042,-0.00001761,-0.00001128,-0.00000824,0.00000830,0.00000643,0.00
 000277,-0.00000139,0.00002405,-0.00002035,-0.05376010,-0.02455571,-0.0
 3522836,-0.00626490,-0.01772221,-0.02542449,-0.00689289,0.00054804,-0.
 00073140,-0.00019654,-0.00118644,-0.00182269,0.00005022,0.00019434,-0.
 00003873,-0.00000052,0.00001606,-0.00000785,-0.00000607,-0.00000232,-0
 .00000193,-0.00000074,0.00002157,-0.00000258,-0.00001286,-0.00004638,0
 .00003361,0.00000322,0.00001961,-0.00001440,0.00000449,-0.00000098,0.0
 0000230,-0.00000001,0.00000281,-0.00000164,0.00000233,0.00000308,-0.00
 000307,-0.00000722,-0.00000683,-0.00000005,0.00000938,-0.00000546,0.00
 000680,-0.00000274,0.00000567,-0.00000189,-0.00001093,0.00000894,0.000
 00676,0.06055067,-0.00006962,-0.00003665,-0.00000762,-0.00004575,0.000
 01356,0.00006401,0.00001852,-0.00017511,-0.00010596,-0.00023683,0.0001
 5680,-0.00000689,-0.00000973,0.00002602,0.00000689,0.00001075,0.000004
 25,0.00001165,0.00003542,0.00007048,0.00004675,-0.00015337,0.00023733,
 -0.00014232,0.00020821,0.00043063,0.00091341,0.00008759,0.00007601,-0.
 00043480,-0.00021290,0.00023979,0.00012543,0.00001626,0.00004250,-0.00
 006676,0.00002677,-0.00011220,0.00002822,-0.00011764,0.00005112,0.0001
 9525,0.00021069,-0.00027882,0.00011120,-0.00000198,-0.00000086,-0.0000
 0816,-0.00001084,-0.00000333,0.00000095,-0.00003800,0.00004620,-0.0001
 3117,-0.02574280,-0.13305865,-0.12398860,0.00016625,-0.00100476,0.0013
 4323,-0.00024540,0.00050189,0.00024601,-0.00000335,0.00048540,-0.00025
 983,0.00011333,-0.00006556,-0.00021477,-0.00000103,0.00000171,-0.00000
 114,0.00000538,0.00000387,0.00000088,0.00000123,-0.00000389,0.00000134
 ,0.00000436,0.00001553,-0.00000629,-0.00004311,-0.00001198,0.00003625,
 0.00002068,0.00000656,0.00000438,0.00000207,0.00000144,-0.00000362,0.0
 0000167,0.00000058,-0.00000155,0.00000332,-0.00000176,-0.00000428,0.00
 000208,-0.00003453,-0.00002315,-0.00000193,-0.00000578,-0.00000306,0.0
 0000007,0.00000975,0.00000193,0.02823970,0.13975896,-0.00005154,-0.000
 08149,0.00002065,0.00003529,0.00005311,-0.00006488,-0.00007173,0.00014
 663,0.00004440,0.00021298,0.00025841,-0.00017433,-0.00000951,0.0000021
 3,-0.00000556,-0.00000461,0.00000405,-0.00000005,-0.00005884,-0.000112
 84,0.00000457,-0.00027178,0.00022925,0.00022550,0.00034781,-0.00061491
 ,0.00016383,0.00058385,0.00071408,0.00035919,-0.00028160,-0.00010890,0
 .00026826,-0.00008518,0.00003790,-0.00006456,-0.00003407,0.00003324,0.
 00002846,0.00001134,-0.00005275,-0.00014356,-0.00020104,-0.00009465,0.
 00022030,-0.00001900,-0.00000338,0.00002257,0.00001126,0.00000898,0.00
 001145,0.00001839,0.00003258,0.00004474,-0.03685733,-0.12369964,-0.226
 68453,-0.00065891,-0.00238155,-0.00538806,-0.00183177,0.00041168,0.000
 47557,-0.00018307,-0.00050515,-0.00006745,0.00010550,0.00007231,0.0004
 9073,0.00000003,-0.00000062,0.00000206,0.00000087,-0.00000070,-0.00000
 038,0.00000332,-0.00000370,0.00000384,-0.00000980,0.00000576,0.0000054
 5,-0.00000114,-0.00000116,0.00000411,-0.00000210,0.00000220,0.00000068
 ,-0.00000016,-0.00000162,-0.00000014,-0.00000072,-0.00000141,-0.000000
 37,0.00000208,0.00000093,-0.00000157,-0.00000565,-0.00000048,-0.000001
 06,0.00000057,-0.00000220,-0.00000050,-0.00001313,0.00000397,-0.000013
 39,0.04199123,0.13547758,0.24283289,0.00012800,-0.00018338,-0.00004820
 ,0.00020805,-0.00003797,-0.00023435,0.00006381,0.00051083,-0.00015703,
 -0.00021166,-0.00008089,0.00037565,0.00000538,-0.00002980,-0.00001020,
 0.00001456,-0.00000427,-0.00006008,-0.00013819,0.00040635,-0.00064528,
 -0.00043021,-0.00036871,0.00054460,0.00169722,-0.00122745,0.00030710,-
 0.00498268,0.00086904,-0.00353237,-0.00052482,-0.00049478,0.00093356,0
 .00014178,0.00032099,0.00034695,-0.00028033,0.00003147,0.00015847,0.00
 031040,0.00009841,0.00006737,-0.00017622,0.00022352,0.00036428,-0.0000
 9162,-0.00000926,0.00012766,-0.00001781,-0.00000615,-0.00001871,-0.000
 07699,-0.00024318,-0.00014067,-0.11456251,-0.05147582,0.10523873,-0.01
 929279,-0.01229666,0.02465447,0.00163300,0.00036136,0.00173408,0.00029
 095,0.00039483,-0.00015402,0.00009645,-0.00015440,-0.00097416,0.000001
 81,-0.00002428,0.00001122,0.00000728,0.00000343,-0.00000667,0.00000035
 ,-0.00004892,0.00001206,-0.00004084,0.00010418,-0.00001189,-0.00003068
 ,-0.00004404,0.00002574,0.00000829,0.00000113,-0.00000131,0.00000226,-
 0.00000478,0.00000293,-0.00000340,-0.00000670,0.00000563,0.00002000,0.
 00001755,-0.00000168,-0.00001703,0.00000090,0.00000073,0.00000522,-0.0
 0001100,0.00000673,-0.00000445,0.00001219,0.00001654,0.00271060,0.0031
 3651,-0.00467111,0.12816658,-0.00001154,0.00008160,0.00002203,-0.00002
 054,-0.00000955,0.00005955,0.00004478,-0.00010001,-0.00004196,0.000046
 97,0.00004606,-0.00019078,-0.00001909,-0.00000429,-0.00000506,-0.00000
 938,0.00000471,0.00000893,0.00023582,-0.00009794,0.00033417,0.00005536
 ,0.00009070,-0.00001644,-0.00007078,0.00028436,-0.00084806,-0.00008231
 ,0.00085001,0.00023335,0.00008105,-0.00025388,-0.00014792,-0.00021433,
 -0.00008686,0.00019192,-0.00008484,0.00022785,-0.00002909,0.00003889,-
 0.00002579,-0.00033749,-0.00007274,-0.00002152,0.00005292,0.00002077,0
 .00000794,0.00003196,0.00000708,0.00002184,0.00003170,0.00026152,0.000
 28643,0.00005379,-0.05215369,-0.08560152,0.07782273,0.00101091,-0.0008
 6620,-0.00010578,-0.00012317,-0.00013747,0.00033310,0.00019168,0.00001
 365,-0.00016430,-0.00034048,0.00008287,-0.00037154,-0.00000203,-0.0000
 1187,0.00000432,-0.00000357,-0.00000600,0.00000332,0.00000871,-0.00001
 040,0.00000254,-0.00001648,0.00000087,-0.00001181,0.00003596,0.0000074
 7,0.00000952,-0.00002124,0.00000254,-0.00000090,-0.00000265,-0.0000036
 9,0.00000335,-0.00000272,-0.00000311,0.00000268,-0.00000259,0.00000228
 ,0.00000181,-0.00000904,0.00001363,-0.00002676,0.00000345,-0.00000108,
 0.00000079,0.00001004,0.00001933,0.00000878,0.01050608,0.00731892,-0.0
 1388408,0.05690729,0.08821491,-0.00006176,0.00006253,-0.00001328,-0.00
 005151,-0.00003417,0.00008477,-0.00003107,-0.00020741,-0.00004979,-0.0
 0015269,-0.00015590,-0.00002190,0.00000255,0.00000113,0.00000200,0.000
 00577,0.00000483,0.00002010,-0.00006569,0.00013273,0.00009594,0.000098
 52,-0.00007823,-0.00018445,0.00018536,0.00027996,0.00026040,-0.0011344
 3,0.00002349,0.00032993,-0.00015170,0.00024931,0.00052276,0.00006713,0
 .00010521,-0.00005885,0.00002046,-0.00009999,0.00000830,-0.00001432,-0
 .00003884,0.00011893,0.00007389,-0.00009914,0.00027202,-0.00001674,-0.
 00000608,-0.00001073,0.00000539,-0.00000730,-0.00000638,-0.00003640,-0
 .00008789,-0.00006824,0.10622050,0.07807927,-0.20744923,-0.00429583,-0
 .00371820,0.00466218,-0.00027993,-0.00015273,0.00105932,0.00006709,-0.
 00001592,0.00016357,-0.00009570,0.00023459,0.00013246,0.00000107,0.000
 01236,-0.00000693,-0.00000037,0.00000304,-0.00000117,-0.00000316,0.000
 01245,-0.00000636,0.00000529,-0.00003117,0.00000996,-0.00003321,0.0000
 0376,0.00000062,0.00002083,-0.00000391,0.00000310,0.00000217,0.0000048
 3,-0.00000333,0.00000349,0.00000370,-0.00000224,-0.00000217,-0.0000036
 9,-0.00000004,0.00001231,-0.00001996,0.00000628,-0.00000387,0.00000158
 ,-0.00000134,0.00000866,-0.00001464,0.00000948,0.01285749,0.01088562,-
 0.01836790,-0.11509139,-0.08614351,0.22254838,0.00016328,0.00015760,0.
 00042426,-0.00021138,0.00020251,0.00003338,0.00029261,0.00005436,0.000
 18140,-0.00016238,0.00032149,0.00028779,-0.00007278,0.00012924,0.00001
 980,-0.00002630,-0.00002064,-0.00003306,-0.00007125,-0.00002148,-0.000
 35199,-0.00030824,0.00114675,-0.00014838,-0.00549887,-0.00247058,-0.00
 112853,0.00187380,0.00054026,-0.00072167,-0.00024606,0.00067313,-0.000
 26411,0.00014709,-0.00001537,-0.00016401,0.00016590,-0.00022929,-0.000
 09567,-0.00009020,-0.00029897,0.00041569,-0.00010872,0.00044579,0.0000
 0282,0.00001100,0.00000048,-0.00003096,0.00000937,-0.00005446,-0.00001
 907,-0.00035981,-0.00073884,0.00014158,-0.07120079,0.07739937,-0.01411
 610,-0.01303145,0.03047044,-0.00626373,0.00172623,0.00123918,0.0011216
 8,0.00016269,-0.00024709,0.00036372,-0.00004326,-0.00019686,-0.0001210
 5,0.00000399,0.00000749,-0.00000314,0.00000477,0.00001026,-0.00000182,
 -0.00001411,0.00000118,0.00000058,0.00000834,-0.00000173,0.00001043,-0
 .00004544,-0.00001690,-0.00001525,0.00002732,-0.00001380,-0.00000546,0
 .00000351,0.00000555,-0.00000228,0.00000276,0.00000412,-0.00000192,0.0
 0000294,-0.00000251,-0.00000090,0.00003001,-0.00001447,0.00004423,-0.0
 0000241,0.00000383,0.00000039,-0.00002630,0.00006714,-0.00002605,0.001
 10161,-0.00549477,0.00186091,0.00541911,-0.01612562,0.00178509,0.08032
 546,0.00005889,-0.00020521,0.00001412,0.00012901,0.00002532,-0.0001634
 0,-0.00003576,0.00020659,0.00001945,0.00015448,0.00017111,-0.00004476,
 -0.00000524,-0.00003714,-0.00002222,0.00000681,-0.00000942,-0.00001409
 ,-0.00007420,0.00000709,-0.00014664,-0.00009343,0.00021802,0.00049668,
 0.00016458,0.00101601,-0.00010017,-0.00014355,0.00031093,0.00051132,0.
 00011620,-0.00028632,-0.00010997,-0.00009156,-0.00002057,0.00005771,-0
 .00007013,0.00013963,0.00000367,0.00002505,0.00005990,-0.00024188,-0.0
 0007890,0.00004701,-0.00018014,0.00000522,0.00000114,0.00001087,0.0000
 0984,0.00002264,0.00001175,-0.00011910,0.00007813,0.00010167,0.0785630
 7,-0.28086973,0.04330239,-0.00048479,-0.00006331,-0.00097590,-0.000415
 29,0.00068454,-0.00005685,0.00000211,0.00025718,-0.00002199,0.00011740
 ,-0.00002616,-0.00007996,-0.00000426,0.00001668,-0.00000695,-0.0000120
 9,-0.00000913,0.00000161,-0.00000031,0.00002829,-0.00000592,-0.0000128
 0,-0.00006485,0.00001708,0.00004947,0.00003885,-0.00003257,-0.00001519
 ,0.00000009,0.00000553,-0.00000246,-0.00000090,0.00000095,-0.00000091,
 0.00000090,-0.00000167,-0.00001132,-0.00000476,0.00000321,0.00002174,0
 .00003182,-0.00001768,-0.00000118,0.00001039,-0.00000650,-0.00000254,-
 0.00002101,0.00000402,0.00498800,-0.01517588,0.00412492,0.00339106,-0.
 01029253,0.00093487,-0.08613151,0.30338610,-0.00012287,0.00023039,0.00
 004465,-0.00015305,-0.00004085,0.00016956,0.00003538,-0.00023661,-0.00
 011515,-0.00001232,0.00018368,0.00002479,0.00000542,0.00003914,0.00001
 901,0.00000674,0.00001758,0.00002518,0.00016681,-0.00009939,0.00022700
 ,0.00001886,0.00022835,-0.00016858,-0.00133038,-0.00021050,0.00066166,
 0.00011568,-0.00074878,-0.00001557,0.00002192,-0.00000061,0.00001663,-
 0.00002525,-0.00001267,0.00006450,0.00001419,0.00005302,0.00000070,0.0
 0005072,-0.00004040,-0.00010109,-0.00007373,-0.00010224,-0.00006810,-0
 .00001421,-0.00000031,-0.00001155,-0.00000607,0.00000290,0.00000418,0.
 00021816,0.00019929,0.00011653,-0.01448522,0.04285779,-0.05562582,-0.0
 0169010,0.00631964,-0.00235622,0.00017764,0.00086986,0.00017521,0.0002
 0624,-0.00018006,0.00005468,-0.00002824,0.00008893,-0.00006720,0.00000
 282,-0.00001581,0.00000650,-0.00000630,-0.00000385,0.00000144,-0.00000
 056,-0.00000994,0.00000007,-0.00001181,0.00000358,0.00000989,0.0000750
 0,0.00002247,-0.00001859,-0.00003883,-0.00000511,-0.00000006,-0.000004
 26,-0.00000489,0.00000453,-0.00000379,-0.00000289,0.00000315,-0.000004
 37,0.00000327,0.00000345,-0.00001266,0.00002353,-0.00001342,0.00000516
 ,0.00000307,0.00000280,-0.00000723,0.00000321,-0.00001595,0.00910341,-
 0.02431580,0.00575338,-0.00896908,0.02300499,-0.00401639,0.01719018,-0
 .04774040,0.05527243,0.00008331,-0.00010696,-0.00003192,0.00005243,0.0
 0002143,-0.00009147,-0.00014259,0.00004975,-0.00001816,0.00010919,-0.0
 0015777,0.00016648,0.00001106,-0.00000525,0.00000858,0.00001911,0.0000
 0338,0.00001028,0.00007588,0.00017162,0.00003377,0.00021735,-0.0001706
 9,0.00008518,0.00068754,-0.00047389,-0.00077612,-0.00001363,0.00045850
 ,-0.00032161,-0.00010090,0.00014812,0.00000791,0.00007016,0.00001680,-
 0.00008181,0.00005454,-0.00009012,0.00002043,-0.00019820,-0.00008272,0
 .00009256,-0.00016677,-0.00002456,-0.00007502,-0.00000392,-0.00000673,
 -0.00000976,0.00001878,-0.00000782,0.00000485,0.00023656,-0.00004796,0
 .00022090,0.00060072,-0.00080525,0.00035937,0.00023255,-0.00529323,0.0
 0136963,-0.07330415,0.07760084,-0.01406066,-0.00798031,0.02968963,-0.0
 0486191,0.00497293,-0.01619213,0.00184801,0.00000698,-0.00000120,-0.00
 000205,-0.00000689,0.00000113,-0.00000329,-0.00002108,-0.00000732,-0.0
 0000462,0.00000998,0.00000246,0.00000125,0.00002156,0.00000473,-0.0000
 2006,0.00000007,-0.00001776,0.00000055,0.00000036,0.00000286,0.0000014
 5,0.00000047,0.00000274,0.00000174,-0.00000277,0.00000384,0.00000746,0
 .00000915,0.00000210,0.00000763,-0.00000093,0.00000520,0.00000014,-0.0
 0001425,-0.00000131,-0.00000774,0.00000864,0.00011818,0.00013837,-0.00
 004889,-0.00007753,0.00007889,0.00003798,0.00000357,-0.00041399,0.0744
 6800,0.00034761,-0.00017197,0.00009037,0.00022733,-0.00007944,-0.00025
 329,-0.00010003,0.00027723,0.00005723,0.00021635,-0.00010273,-0.000168
 53,0.00008276,-0.00007924,0.00001474,0.00000707,-0.00000853,-0.0000122
 2,0.00000033,0.00010093,0.00004920,-0.00021659,-0.00061620,0.00025982,
 -0.00106493,-0.00015939,-0.00375108,-0.00084016,0.00041766,0.00097136,
 0.00022118,-0.00052579,0.00006518,-0.00008482,0.00001754,0.00013120,-0
 .00013540,0.00019110,0.00004760,0.00020742,0.00029427,-0.00017624,0.00
 014419,-0.00007712,0.00001333,-0.00002316,-0.00001297,0.00000164,-0.00
 003590,0.00002084,-0.00002172,-0.00011794,0.00027856,-0.00017867,0.000
 77511,0.00054241,0.00113078,0.00580592,-0.01799207,0.00243705,0.077270
 73,-0.28127558,0.04301365,-0.00064094,0.00179603,-0.00018615,0.0035046
 1,-0.01010254,0.00128827,-0.00000789,0.00001364,-0.00000582,-0.0000033
 7,-0.00001042,0.00000055,0.00000604,0.00003203,-0.00000976,0.00001600,
 -0.00004422,0.00002722,0.00002188,0.00003139,-0.00000041,-0.00000534,0
 .00001167,0.00000684,-0.00000167,-0.00000139,-0.00000101,-0.00000028,0
 .00000044,-0.00000236,-0.00000703,-0.00000445,0.00000072,-0.00000853,-
 0.00000803,-0.00002038,-0.00000141,0.00000411,-0.00000607,0.00000429,-
 0.00005368,0.00001406,-0.00000288,0.00047047,-0.00006847,-0.00003861,-
 0.00004429,-0.00011658,-0.00078527,0.00032857,-0.00038355,-0.08473666,
 0.30654114,0.00031132,0.00025346,0.00009615,0.00003219,-0.00023062,0.0
 0001726,0.00025303,0.00005885,0.00024528,0.00034546,-0.00018640,0.0000
 3800,0.00004734,-0.00009668,-0.00002055,-0.00004719,-0.00000851,-0.000
 02175,-0.00035993,-0.00024995,-0.00002604,0.00062879,-0.00087592,0.000
 14953,-0.00171254,-0.00138319,-0.00428946,-0.00007765,0.00003823,0.001
 79220,-0.00001585,-0.00056082,0.00011364,-0.00012977,-0.00000245,0.000
 09375,-0.00014298,0.00012765,0.00005184,0.00015155,0.00027167,-0.00020
 335,0.00015321,-0.00045430,0.00005982,-0.00001293,-0.00000013,0.000019
 68,-0.00003203,0.00003008,-0.00000434,-0.00014622,0.00032992,-0.000703
 54,0.00134193,0.00010734,0.00140951,0.00781470,-0.02696872,0.00218944,
 -0.01412247,0.04422626,-0.05374850,-0.00110353,0.00615402,-0.00213655,
 -0.00912722,0.02306364,-0.00376333,-0.00000998,-0.00001436,0.00000457,
 0.00000037,-0.00001249,0.00000321,0.00001687,-0.00001308,-0.00000139,-
 0.00001279,0.00002484,-0.00001554,0.00001695,-0.00000316,0.00002301,-0
 .00001049,0.00001457,-0.00000243,-0.00000175,-0.00000486,0.00000390,-0
 .00000342,-0.00000435,0.00000486,0.00000173,0.00000630,0.00000049,-0.0
 0002124,-0.00000017,-0.00001988,0.00000433,-0.00000333,0.00000281,0.00
 000796,-0.00005478,0.00000500,0.00022262,0.00022483,-0.00000434,-0.000
 20632,0.00010724,-0.00004193,-0.00036880,0.00034785,-0.00006820,0.0163
 1474,-0.04425849,0.05874715\\-0.00001435,0.00005966,-0.00001605,-0.000
 02883,-0.00002121,0.00003959,0.00002646,-0.00002408,-0.00001822,0.0000
 0579,0.00002880,-0.00002557,0.00000208,-0.00001429,0.00000285,0.000005
 43,0.00000573,-0.00001317,-0.00000340,-0.00000665,0.00000362,0.0000372
 7,-0.00003158,-0.00002050,-0.00003852,0.00000460,0.00004805,-0.0000322
 1,0.00006261,0.00002816,0.00003466,-0.00001027,-0.00004323,-0.00002445
 ,-0.00004312,0.00005336,-0.00003542,0.00007331,-0.00000530,0.00005458,
 -0.00002799,-0.00004266,-0.00000871,-0.00003561,0.00003155,0.00000428,
 0.00000436,-0.00000693,0.00001051,-0.00001679,0.00000376,0.00000259,0.
 00000546,-0.00000620,0.00002785,0.00001329,0.00002366,-0.00001194,-0.0
 0002751,-0.00003475,-0.00001036,-0.00000381,-0.00001053,0.00000927,0.0
 0000226,0.00000715,0.00000319,-0.00000170,0.00000110,0.00000801,-0.000
 02929,0.00001638,0.00000425,0.00002115,-0.00001345,-0.00001686,-0.0000
 2843,0.00001800,-0.00000620,0.00002952,-0.00000283,0.00001159,-0.00002
 179,0.00000757,-0.00000561,0.00001757,-0.00000248,0.00000405,0.0000078
 6,-0.00000394,-0.00000361,0.00000191,0.00000326,0.00000224,0.00000087,
 -0.00000102,0.00000239,0.00000441,-0.00000131,0.00000923,0.,-0.0000019
 6,-0.00001197,0.00000964,0.00000315,-0.00001051,-0.00000497,-0.0000094
 7,-0.00000518,-0.00000123,-0.00000512,-0.00000247,-0.00000237,-0.00000
 494,0.00000491,-0.00000030,-0.00000162\\\@
 The archive entry for this job was punched.


 YOU WILL NEVER "FIND" TIME FOR ANYTHING.
 IF YOU WANT TIME, YOU MUST MAKE IT.

                        -- CHARLES BIXTON
 Job cpu time:       3 days 16 hours  0 minutes 19.9 seconds.
 Elapsed time:       0 days  2 hours 46 minutes 59.0 seconds.
 File lengths (MBytes):  RWF=   1542 Int=      0 D2E=      0 Chk=     47 Scr=      1
 Normal termination of Gaussian 16 at Tue Nov 14 19:53:35 2023.
