 Entering Gaussian System, Link 0=g16
 Input=ph_fluorene_cyclobutyl_4_1_m062x.com
 Output=ph_fluorene_cyclobutyl_4_1_m062x.log
 Initial command:
 /arc/software/Gaussian/g16.c01/l1.exe "/tmp/slurm/147928/Gau-115043.inp" -scrdir="/tmp/slurm/147928/"
 Entering Link 1 = /arc/software/Gaussian/g16.c01/l1.exe PID=    115045.
  
 Copyright (c) 1988-2019, Gaussian, Inc.  All Rights Reserved.
  
 This is part of the Gaussian(R) 16 program.  It is based on
 the Gaussian(R) 09 system (copyright 2009, Gaussian, Inc.),
 the Gaussian(R) 03 system (copyright 2003, Gaussian, Inc.),
 the Gaussian(R) 98 system (copyright 1998, Gaussian, Inc.),
 the Gaussian(R) 94 system (copyright 1995, Gaussian, Inc.),
 the Gaussian 92(TM) system (copyright 1992, Gaussian, Inc.),
 the Gaussian 90(TM) system (copyright 1990, Gaussian, Inc.),
 the Gaussian 88(TM) system (copyright 1988, Gaussian, Inc.),
 the Gaussian 86(TM) system (copyright 1986, Carnegie Mellon
 University), and the Gaussian 82(TM) system (copyright 1983,
 Carnegie Mellon University). Gaussian is a federally registered
 trademark of Gaussian, Inc.
  
 This software contains proprietary and confidential information,
 including trade secrets, belonging to Gaussian, Inc.
  
 This software is provided under written license and may be
 used, copied, transmitted, or stored only in accord with that
 written license.
  
 The following legend is applicable only to US Government
 contracts under FAR:
  
                    RESTRICTED RIGHTS LEGEND
  
 Use, reproduction and disclosure by the US Government is
 subject to restrictions as set forth in subparagraphs (a)
 and (c) of the Commercial Computer Software - Restricted
 Rights clause in FAR 52.227-19.
  
 Gaussian, Inc.
 340 Quinnipiac St., Bldg. 40, Wallingford CT 06492
  
  
 ---------------------------------------------------------------
 Warning -- This program may not be used in any manner that
 competes with the business of Gaussian, Inc. or will provide
 assistance to any competitor of Gaussian, Inc.  The licensee
 of this program is prohibited from giving any competitor of
 Gaussian, Inc. access to this program.  By using this program,
 the user acknowledges that Gaussian, Inc. is engaged in the
 business of creating and licensing software in the field of
 computational chemistry and represents and warrants to the
 licensee that it is not a competitor of Gaussian, Inc. and that
 it will not use this program in any manner prohibited above.
 ---------------------------------------------------------------
  

 Cite this work as:
 Gaussian 16, Revision C.01,
 M. J. Frisch, G. W. Trucks, H. B. Schlegel, G. E. Scuseria, 
 M. A. Robb, J. R. Cheeseman, G. Scalmani, V. Barone, 
 G. A. Petersson, H. Nakatsuji, X. Li, M. Caricato, A. V. Marenich, 
 J. Bloino, B. G. Janesko, R. Gomperts, B. Mennucci, H. P. Hratchian, 
 J. V. Ortiz, A. F. Izmaylov, J. L. Sonnenberg, D. Williams-Young, 
 F. Ding, F. Lipparini, F. Egidi, J. Goings, B. Peng, A. Petrone, 
 T. Henderson, D. Ranasinghe, V. G. Zakrzewski, J. Gao, N. Rega, 
 G. Zheng, W. Liang, M. Hada, M. Ehara, K. Toyota, R. Fukuda, 
 J. Hasegawa, M. Ishida, T. Nakajima, Y. Honda, O. Kitao, H. Nakai, 
 T. Vreven, K. Throssell, J. A. Montgomery, Jr., J. E. Peralta, 
 F. Ogliaro, M. J. Bearpark, J. J. Heyd, E. N. Brothers, K. N. Kudin, 
 V. N. Staroverov, T. A. Keith, R. Kobayashi, J. Normand, 
 K. Raghavachari, A. P. Rendell, J. C. Burant, S. S. Iyengar, 
 J. Tomasi, M. Cossi, J. M. Millam, M. Klene, C. Adamo, R. Cammi, 
 J. W. Ochterski, R. L. Martin, K. Morokuma, O. Farkas, 
 J. B. Foresman, and D. J. Fox, Gaussian, Inc., Wallingford CT, 2019.
 
 ******************************************
 Gaussian 16:  ES64L-G16RevC.01  3-Jul-2019
                28-Nov-2023 
 ******************************************
 %nprocshared=32
 Will use up to   32 processors via shared memory.
 %mem=8000MB
 %chk=ph_fluorene_cyclobutyl_4_1_m062x.chk
 -----------------------------------------
 # opt freq=noraman m062x def2tzvp pop=nbo
 -----------------------------------------
 1/18=20,19=15,26=3,38=1/1,3;
 2/9=110,12=2,17=6,18=5,40=1/2;
 3/5=44,7=101,11=2,25=1,30=1,71=1,74=-55/1,2,3;
 4//1;
 5/5=2,38=5/2;
 6/7=2,8=2,9=2,10=2,28=1,40=1/1,7;
 7//1,2,3,16;
 1/18=20,19=15,26=3/3(2);
 2/9=110/2;
 99//99;
 2/9=110/2;
 3/5=44,7=101,11=2,25=1,30=1,71=1,74=-55/1,2,3;
 4/5=5,16=3,69=1/1;
 5/5=2,38=5/2;
 7//1,2,3,16;
 1/18=20,19=15,26=3/3(-5);
 2/9=110/2;
 6/7=2,8=2,9=2,10=2,19=2,28=1,40=1/1,7;
 99/9=1/99;
 ----------
 Structure1
 ----------
 Symbolic Z-matrix:
 Charge =  0 Multiplicity = 1
 C                    -2.313    -4.0119    2.5175 
 C                    -1.5365   -3.7509    3.6439 
 C                    -0.1371   -3.7757    3.5716 
 C                     0.4678   -4.0694    2.3421 
 C                    -0.3041   -4.3328    1.213 
 C                    -1.6928   -4.3025    1.3056 
 C                     0.6925   -3.4948    4.7803 
 C                     0.3026   -3.958     6.0459 
 H                     1.5441   -4.109     2.2618 
 H                     0.1731   -4.5622    0.2713 
 H                    -2.2934   -4.5058    0.4306 
 H                    -0.6027   -4.5376    6.142 
 C                     1.8832   -2.7601    4.6823 
 C                     2.66     -2.4941    5.8102 
 H                     2.2055   -2.3768    3.7257 
 H                     3.5698   -1.9225    5.7083 
 C                     1.0744   -3.6987    7.1828 
 C                     2.2506   -2.9661    7.0562 
 C                     2.8598   -2.8379    8.3843 
 C                     2.0458   -3.4977    9.3039 
 C                     2.4141   -3.5192    10.6535 
 C                     3.5856   -2.8856    11.0725 
 C                     4.3946   -2.2276    10.1449 
 C                     4.0327   -2.2025    8.7973 
 H                     1.7986   -4.0242    11.3822 
 H                     3.8656   -2.9052    12.1158 
 H                     5.301    -1.7374    10.469 
 H                     4.663    -1.6917    8.0851 
 C                     0.8246   -4.115     8.6271 
 C                     0.5253   -5.6038    8.905 
 C                    -0.5792   -5.1982    9.8853 
 C                    -0.5625   -3.8124    9.2336 
 H                     0.1595   -6.1422    8.0287 
 H                     1.3542   -6.1672    9.336 
 H                    -1.5157   -5.7497    9.7904 
 H                    -0.2572   -5.194     10.9281 
 H                    -1.3413   -3.6708    8.4821 
 H                    -0.5889   -2.9673    9.923 
 H                    -3.391    -3.9856    2.584 
 H                    -2.0282   -3.513     4.5757 
 

 GradGradGradGradGradGradGradGradGradGradGradGradGradGradGradGradGradGrad
 Berny optimization.
 Initialization pass.
                           ----------------------------
                           !    Initial Parameters    !
                           ! (Angstroms and Degrees)  !
 --------------------------                            --------------------------
 ! Name  Definition              Value          Derivative Info.                !
 --------------------------------------------------------------------------------
 ! R1    R(1,2)                  1.3928         estimate D2E/DX2                !
 ! R2    R(1,6)                  1.392          estimate D2E/DX2                !
 ! R3    R(1,39)                 1.0804         estimate D2E/DX2                !
 ! R4    R(2,3)                  1.4015         estimate D2E/DX2                !
 ! R5    R(2,40)                 1.0801         estimate D2E/DX2                !
 ! R6    R(3,4)                  1.4014         estimate D2E/DX2                !
 ! R7    R(3,7)                  1.4927         estimate D2E/DX2                !
 ! R8    R(4,5)                  1.3929         estimate D2E/DX2                !
 ! R9    R(4,9)                  1.08           estimate D2E/DX2                !
 ! R10   R(5,6)                  1.3921         estimate D2E/DX2                !
 ! R11   R(5,10)                 1.0803         estimate D2E/DX2                !
 ! R12   R(6,11)                 1.0806         estimate D2E/DX2                !
 ! R13   R(7,8)                  1.403          estimate D2E/DX2                !
 ! R14   R(7,13)                 1.4026         estimate D2E/DX2                !
 ! R15   R(8,12)                 1.0792         estimate D2E/DX2                !
 ! R16   R(8,17)                 1.3984         estimate D2E/DX2                !
 ! R17   R(13,14)                1.3951         estimate D2E/DX2                !
 ! R18   R(13,15)                1.0798         estimate D2E/DX2                !
 ! R19   R(14,16)                1.0793         estimate D2E/DX2                !
 ! R20   R(14,18)                1.3939         estimate D2E/DX2                !
 ! R21   R(17,18)                1.3915         estimate D2E/DX2                !
 ! R22   R(17,29)                1.5237         estimate D2E/DX2                !
 ! R23   R(18,19)                1.4668         estimate D2E/DX2                !
 ! R24   R(19,20)                1.3941         estimate D2E/DX2                !
 ! R25   R(19,24)                1.3964         estimate D2E/DX2                !
 ! R26   R(20,21)                1.3991         estimate D2E/DX2                !
 ! R27   R(20,29)                1.5266         estimate D2E/DX2                !
 ! R28   R(21,22)                1.3962         estimate D2E/DX2                !
 ! R29   R(21,25)                1.0793         estimate D2E/DX2                !
 ! R30   R(22,23)                1.3957         estimate D2E/DX2                !
 ! R31   R(22,26)                1.0804         estimate D2E/DX2                !
 ! R32   R(23,24)                1.3956         estimate D2E/DX2                !
 ! R33   R(23,27)                1.0802         estimate D2E/DX2                !
 ! R34   R(24,28)                1.0795         estimate D2E/DX2                !
 ! R35   R(29,30)                1.5438         estimate D2E/DX2                !
 ! R36   R(29,32)                1.5438         estimate D2E/DX2                !
 ! R37   R(30,31)                1.5315         estimate D2E/DX2                !
 ! R38   R(30,33)                1.0916         estimate D2E/DX2                !
 ! R39   R(30,34)                1.091          estimate D2E/DX2                !
 ! R40   R(31,32)                1.5315         estimate D2E/DX2                !
 ! R41   R(31,35)                1.091          estimate D2E/DX2                !
 ! R42   R(31,36)                1.0914         estimate D2E/DX2                !
 ! R43   R(32,37)                1.0915         estimate D2E/DX2                !
 ! R44   R(32,38)                1.0909         estimate D2E/DX2                !
 ! A1    A(2,1,6)              119.6571         estimate D2E/DX2                !
 ! A2    A(2,1,39)             120.1292         estimate D2E/DX2                !
 ! A3    A(6,1,39)             120.2134         estimate D2E/DX2                !
 ! A4    A(1,2,3)              120.7737         estimate D2E/DX2                !
 ! A5    A(1,2,40)             119.0237         estimate D2E/DX2                !
 ! A6    A(3,2,40)             120.1961         estimate D2E/DX2                !
 ! A7    A(2,3,4)              118.6839         estimate D2E/DX2                !
 ! A8    A(2,3,7)              120.6537         estimate D2E/DX2                !
 ! A9    A(4,3,7)              120.6624         estimate D2E/DX2                !
 ! A10   A(3,4,5)              120.7727         estimate D2E/DX2                !
 ! A11   A(3,4,9)              120.204          estimate D2E/DX2                !
 ! A12   A(5,4,9)              119.017          estimate D2E/DX2                !
 ! A13   A(4,5,6)              119.6556         estimate D2E/DX2                !
 ! A14   A(4,5,10)             120.1302         estimate D2E/DX2                !
 ! A15   A(6,5,10)             120.214          estimate D2E/DX2                !
 ! A16   A(1,6,5)              120.457          estimate D2E/DX2                !
 ! A17   A(1,6,11)             119.7752         estimate D2E/DX2                !
 ! A18   A(5,6,11)             119.7679         estimate D2E/DX2                !
 ! A19   A(3,7,8)              120.9225         estimate D2E/DX2                !
 ! A20   A(3,7,13)             120.9191         estimate D2E/DX2                !
 ! A21   A(8,7,13)             118.1584         estimate D2E/DX2                !
 ! A22   A(7,8,12)             119.3905         estimate D2E/DX2                !
 ! A23   A(7,8,17)             121.252          estimate D2E/DX2                !
 ! A24   A(12,8,17)            119.3515         estimate D2E/DX2                !
 ! A25   A(7,13,14)            121.07           estimate D2E/DX2                !
 ! A26   A(7,13,15)            120.0835         estimate D2E/DX2                !
 ! A27   A(14,13,15)           118.8401         estimate D2E/DX2                !
 ! A28   A(13,14,16)           119.6048         estimate D2E/DX2                !
 ! A29   A(13,14,18)           119.6427         estimate D2E/DX2                !
 ! A30   A(16,14,18)           120.7522         estimate D2E/DX2                !
 ! A31   A(8,17,18)            119.3536         estimate D2E/DX2                !
 ! A32   A(8,17,29)            129.0129         estimate D2E/DX2                !
 ! A33   A(18,17,29)           111.6334         estimate D2E/DX2                !
 ! A34   A(14,18,17)           120.5232         estimate D2E/DX2                !
 ! A35   A(14,18,19)           131.1331         estimate D2E/DX2                !
 ! A36   A(17,18,19)           108.3437         estimate D2E/DX2                !
 ! A37   A(18,19,20)           108.2638         estimate D2E/DX2                !
 ! A38   A(18,19,24)           131.0273         estimate D2E/DX2                !
 ! A39   A(20,19,24)           120.7089         estimate D2E/DX2                !
 ! A40   A(19,20,21)           119.3309         estimate D2E/DX2                !
 ! A41   A(19,20,29)           111.4699         estimate D2E/DX2                !
 ! A42   A(21,20,29)           129.1992         estimate D2E/DX2                !
 ! A43   A(20,21,22)           120.2234         estimate D2E/DX2                !
 ! A44   A(20,21,25)           120.5534         estimate D2E/DX2                !
 ! A45   A(22,21,25)           119.2232         estimate D2E/DX2                !
 ! A46   A(21,22,23)           120.0564         estimate D2E/DX2                !
 ! A47   A(21,22,26)           119.9346         estimate D2E/DX2                !
 ! A48   A(23,22,26)           120.009          estimate D2E/DX2                !
 ! A49   A(22,23,24)           119.9964         estimate D2E/DX2                !
 ! A50   A(22,23,27)           120.0603         estimate D2E/DX2                !
 ! A51   A(24,23,27)           119.9433         estimate D2E/DX2                !
 ! A52   A(19,24,23)           119.684          estimate D2E/DX2                !
 ! A53   A(19,24,28)           120.7025         estimate D2E/DX2                !
 ! A54   A(23,24,28)           119.6135         estimate D2E/DX2                !
 ! A55   A(17,29,20)           100.2889         estimate D2E/DX2                !
 ! A56   A(17,29,30)           117.7679         estimate D2E/DX2                !
 ! A57   A(17,29,32)           117.7828         estimate D2E/DX2                !
 ! A58   A(20,29,30)           117.726          estimate D2E/DX2                !
 ! A59   A(20,29,32)           117.7305         estimate D2E/DX2                !
 ! A60   A(30,29,32)            86.7964         estimate D2E/DX2                !
 ! A61   A(29,30,31)            89.9793         estimate D2E/DX2                !
 ! A62   A(29,30,33)           113.3352         estimate D2E/DX2                !
 ! A63   A(29,30,34)           114.9501         estimate D2E/DX2                !
 ! A64   A(31,30,33)           113.7534         estimate D2E/DX2                !
 ! A65   A(31,30,34)           115.5843         estimate D2E/DX2                !
 ! A66   A(33,30,34)           108.4836         estimate D2E/DX2                !
 ! A67   A(30,31,32)            87.6731         estimate D2E/DX2                !
 ! A68   A(30,31,35)           115.4376         estimate D2E/DX2                !
 ! A69   A(30,31,36)           113.5683         estimate D2E/DX2                !
 ! A70   A(32,31,35)           115.4533         estimate D2E/DX2                !
 ! A71   A(32,31,36)           113.5714         estimate D2E/DX2                !
 ! A72   A(35,31,36)           109.7749         estimate D2E/DX2                !
 ! A73   A(29,32,31)            89.9776         estimate D2E/DX2                !
 ! A74   A(29,32,37)           113.3301         estimate D2E/DX2                !
 ! A75   A(29,32,38)           114.9502         estimate D2E/DX2                !
 ! A76   A(31,32,37)           113.7407         estimate D2E/DX2                !
 ! A77   A(31,32,38)           115.5811         estimate D2E/DX2                !
 ! A78   A(37,32,38)           108.5014         estimate D2E/DX2                !
 ! D1    D(6,1,2,3)              0.0786         estimate D2E/DX2                !
 ! D2    D(6,1,2,40)           179.1519         estimate D2E/DX2                !
 ! D3    D(39,1,2,3)          -179.7224         estimate D2E/DX2                !
 ! D4    D(39,1,2,40)           -0.6492         estimate D2E/DX2                !
 ! D5    D(2,1,6,5)             -0.0429         estimate D2E/DX2                !
 ! D6    D(2,1,6,11)           179.9682         estimate D2E/DX2                !
 ! D7    D(39,1,6,5)           179.758          estimate D2E/DX2                !
 ! D8    D(39,1,6,11)           -0.2309         estimate D2E/DX2                !
 ! D9    D(1,2,3,4)             -0.0338         estimate D2E/DX2                !
 ! D10   D(1,2,3,7)            179.9648         estimate D2E/DX2                !
 ! D11   D(40,2,3,4)          -179.0962         estimate D2E/DX2                !
 ! D12   D(40,2,3,7)             0.9024         estimate D2E/DX2                !
 ! D13   D(2,3,4,5)             -0.0471         estimate D2E/DX2                !
 ! D14   D(2,3,4,9)           -179.1221         estimate D2E/DX2                !
 ! D15   D(7,3,4,5)            179.9542         estimate D2E/DX2                !
 ! D16   D(7,3,4,9)              0.8792         estimate D2E/DX2                !
 ! D17   D(2,3,7,8)             38.1701         estimate D2E/DX2                !
 ! D18   D(2,3,7,13)          -141.8095         estimate D2E/DX2                !
 ! D19   D(4,3,7,8)           -141.8313         estimate D2E/DX2                !
 ! D20   D(4,3,7,13)            38.1892         estimate D2E/DX2                !
 ! D21   D(3,4,5,6)              0.0824         estimate D2E/DX2                !
 ! D22   D(3,4,5,10)          -179.7385         estimate D2E/DX2                !
 ! D23   D(9,4,5,6)            179.1682         estimate D2E/DX2                !
 ! D24   D(9,4,5,10)            -0.6526         estimate D2E/DX2                !
 ! D25   D(4,5,6,1)             -0.0369         estimate D2E/DX2                !
 ! D26   D(4,5,6,11)           179.952          estimate D2E/DX2                !
 ! D27   D(10,5,6,1)           179.7838         estimate D2E/DX2                !
 ! D28   D(10,5,6,11)           -0.2273         estimate D2E/DX2                !
 ! D29   D(3,7,8,12)             0.9023         estimate D2E/DX2                !
 ! D30   D(3,7,8,17)          -179.9914         estimate D2E/DX2                !
 ! D31   D(13,7,8,12)         -179.1176         estimate D2E/DX2                !
 ! D32   D(13,7,8,17)           -0.0113         estimate D2E/DX2                !
 ! D33   D(3,7,13,14)          179.9076         estimate D2E/DX2                !
 ! D34   D(3,7,13,15)            0.8406         estimate D2E/DX2                !
 ! D35   D(8,7,13,14)           -0.0726         estimate D2E/DX2                !
 ! D36   D(8,7,13,15)         -179.1395         estimate D2E/DX2                !
 ! D37   D(7,8,17,18)            0.07           estimate D2E/DX2                !
 ! D38   D(7,8,17,29)         -179.7883         estimate D2E/DX2                !
 ! D39   D(12,8,17,18)         179.1768         estimate D2E/DX2                !
 ! D40   D(12,8,17,29)          -0.6816         estimate D2E/DX2                !
 ! D41   D(7,13,14,16)        -179.7214         estimate D2E/DX2                !
 ! D42   D(7,13,14,18)           0.0966         estimate D2E/DX2                !
 ! D43   D(15,13,14,16)         -0.6431         estimate D2E/DX2                !
 ! D44   D(15,13,14,18)        179.1749         estimate D2E/DX2                !
 ! D45   D(13,14,18,17)         -0.036          estimate D2E/DX2                !
 ! D46   D(13,14,18,19)        179.9806         estimate D2E/DX2                !
 ! D47   D(16,14,18,17)        179.7799         estimate D2E/DX2                !
 ! D48   D(16,14,18,19)         -0.2035         estimate D2E/DX2                !
 ! D49   D(8,17,18,14)          -0.046          estimate D2E/DX2                !
 ! D50   D(8,17,18,19)         179.9408         estimate D2E/DX2                !
 ! D51   D(29,17,18,14)        179.8356         estimate D2E/DX2                !
 ! D52   D(29,17,18,19)         -0.1776         estimate D2E/DX2                !
 ! D53   D(8,17,29,20)        -179.9606         estimate D2E/DX2                !
 ! D54   D(8,17,29,30)          50.9918         estimate D2E/DX2                !
 ! D55   D(8,17,29,32)         -50.8972         estimate D2E/DX2                !
 ! D56   D(18,17,29,20)          0.1722         estimate D2E/DX2                !
 ! D57   D(18,17,29,30)       -128.8754         estimate D2E/DX2                !
 ! D58   D(18,17,29,32)        129.2356         estimate D2E/DX2                !
 ! D59   D(14,18,19,20)       -179.9121         estimate D2E/DX2                !
 ! D60   D(14,18,19,24)          0.08           estimate D2E/DX2                !
 ! D61   D(17,18,19,20)          0.103          estimate D2E/DX2                !
 ! D62   D(17,18,19,24)       -179.9049         estimate D2E/DX2                !
 ! D63   D(18,19,20,21)       -179.9953         estimate D2E/DX2                !
 ! D64   D(18,19,20,29)          0.0104         estimate D2E/DX2                !
 ! D65   D(24,19,20,21)          0.0116         estimate D2E/DX2                !
 ! D66   D(24,19,20,29)       -179.9827         estimate D2E/DX2                !
 ! D67   D(18,19,24,23)       -179.9995         estimate D2E/DX2                !
 ! D68   D(18,19,24,28)          0.0023         estimate D2E/DX2                !
 ! D69   D(20,19,24,23)         -0.0082         estimate D2E/DX2                !
 ! D70   D(20,19,24,28)        179.9936         estimate D2E/DX2                !
 ! D71   D(19,20,21,22)         -0.0061         estimate D2E/DX2                !
 ! D72   D(19,20,21,25)       -179.9973         estimate D2E/DX2                !
 ! D73   D(29,20,21,22)        179.9871         estimate D2E/DX2                !
 ! D74   D(29,20,21,25)         -0.0041         estimate D2E/DX2                !
 ! D75   D(19,20,29,17)         -0.1061         estimate D2E/DX2                !
 ! D76   D(19,20,29,30)        128.9687         estimate D2E/DX2                !
 ! D77   D(19,20,29,32)       -129.2034         estimate D2E/DX2                !
 ! D78   D(21,20,29,17)        179.9003         estimate D2E/DX2                !
 ! D79   D(21,20,29,30)        -51.0249         estimate D2E/DX2                !
 ! D80   D(21,20,29,32)         50.803          estimate D2E/DX2                !
 ! D81   D(20,21,22,23)         -0.0028         estimate D2E/DX2                !
 ! D82   D(20,21,22,26)       -179.9935         estimate D2E/DX2                !
 ! D83   D(25,21,22,23)        179.9886         estimate D2E/DX2                !
 ! D84   D(25,21,22,26)         -0.0022         estimate D2E/DX2                !
 ! D85   D(21,22,23,24)          0.0062         estimate D2E/DX2                !
 ! D86   D(21,22,23,27)       -179.9981         estimate D2E/DX2                !
 ! D87   D(26,22,23,24)        179.9969         estimate D2E/DX2                !
 ! D88   D(26,22,23,27)         -0.0074         estimate D2E/DX2                !
 ! D89   D(22,23,24,19)         -0.0008         estimate D2E/DX2                !
 ! D90   D(22,23,24,28)        179.9975         estimate D2E/DX2                !
 ! D91   D(27,23,24,19)       -179.9965         estimate D2E/DX2                !
 ! D92   D(27,23,24,28)          0.0018         estimate D2E/DX2                !
 ! D93   D(17,29,30,31)       -137.5393         estimate D2E/DX2                !
 ! D94   D(17,29,30,33)        -21.5293         estimate D2E/DX2                !
 ! D95   D(17,29,30,34)        104.0284         estimate D2E/DX2                !
 ! D96   D(20,29,30,31)        102.1442         estimate D2E/DX2                !
 ! D97   D(20,29,30,33)       -141.8457         estimate D2E/DX2                !
 ! D98   D(20,29,30,34)        -16.288          estimate D2E/DX2                !
 ! D99   D(32,29,30,31)        -17.6624         estimate D2E/DX2                !
 ! D100  D(32,29,30,33)         98.3476         estimate D2E/DX2                !
 ! D101  D(32,29,30,34)       -136.0947         estimate D2E/DX2                !
 ! D102  D(17,29,32,31)        137.5256         estimate D2E/DX2                !
 ! D103  D(17,29,32,37)         21.5315         estimate D2E/DX2                !
 ! D104  D(17,29,32,38)       -104.0466         estimate D2E/DX2                !
 ! D105  D(20,29,32,31)       -102.1401         estimate D2E/DX2                !
 ! D106  D(20,29,32,37)        141.8659         estimate D2E/DX2                !
 ! D107  D(20,29,32,38)         16.2878         estimate D2E/DX2                !
 ! D108  D(30,29,32,31)         17.6623         estimate D2E/DX2                !
 ! D109  D(30,29,32,37)        -98.3317         estimate D2E/DX2                !
 ! D110  D(30,29,32,38)        136.0902         estimate D2E/DX2                !
 ! D111  D(29,30,31,32)         17.7961         estimate D2E/DX2                !
 ! D112  D(29,30,31,35)        134.9885         estimate D2E/DX2                !
 ! D113  D(29,30,31,36)        -96.9702         estimate D2E/DX2                !
 ! D114  D(33,30,31,32)        -97.8373         estimate D2E/DX2                !
 ! D115  D(33,30,31,35)         19.3551         estimate D2E/DX2                !
 ! D116  D(33,30,31,36)        147.3964         estimate D2E/DX2                !
 ! D117  D(34,30,31,32)        135.669          estimate D2E/DX2                !
 ! D118  D(34,30,31,35)       -107.1386         estimate D2E/DX2                !
 ! D119  D(34,30,31,36)         20.9027         estimate D2E/DX2                !
 ! D120  D(30,31,32,29)        -17.7957         estimate D2E/DX2                !
 ! D121  D(30,31,32,37)         97.8286         estimate D2E/DX2                !
 ! D122  D(30,31,32,38)       -135.667          estimate D2E/DX2                !
 ! D123  D(35,31,32,29)       -134.9735         estimate D2E/DX2                !
 ! D124  D(35,31,32,37)        -19.3492         estimate D2E/DX2                !
 ! D125  D(35,31,32,38)        107.1552         estimate D2E/DX2                !
 ! D126  D(36,31,32,29)         96.9677         estimate D2E/DX2                !
 ! D127  D(36,31,32,37)       -147.408          estimate D2E/DX2                !
 ! D128  D(36,31,32,38)        -20.9036         estimate D2E/DX2                !
 --------------------------------------------------------------------------------
 Trust Radius=3.00D-01 FncErr=1.00D-07 GrdErr=1.00D-06 EigMax=2.50D+02 EigMin=1.00D-04
 Number of steps in this run=    240 maximum allowed number of steps=    240.
 GradGradGradGradGradGradGradGradGradGradGradGradGradGradGradGradGradGrad

                          Input orientation:                          
 ---------------------------------------------------------------------
 Center     Atomic      Atomic             Coordinates (Angstroms)
 Number     Number       Type             X           Y           Z
 ---------------------------------------------------------------------
      1          6           0       -2.313000   -4.011900    2.517500
      2          6           0       -1.536500   -3.750900    3.643900
      3          6           0       -0.137100   -3.775700    3.571600
      4          6           0        0.467800   -4.069400    2.342100
      5          6           0       -0.304100   -4.332800    1.213000
      6          6           0       -1.692800   -4.302500    1.305600
      7          6           0        0.692500   -3.494800    4.780300
      8          6           0        0.302600   -3.958000    6.045900
      9          1           0        1.544100   -4.109000    2.261800
     10          1           0        0.173100   -4.562200    0.271300
     11          1           0       -2.293400   -4.505800    0.430600
     12          1           0       -0.602700   -4.537600    6.142000
     13          6           0        1.883200   -2.760100    4.682300
     14          6           0        2.660000   -2.494100    5.810200
     15          1           0        2.205500   -2.376800    3.725700
     16          1           0        3.569800   -1.922500    5.708300
     17          6           0        1.074400   -3.698700    7.182800
     18          6           0        2.250600   -2.966100    7.056200
     19          6           0        2.859800   -2.837900    8.384300
     20          6           0        2.045800   -3.497700    9.303900
     21          6           0        2.414100   -3.519200   10.653500
     22          6           0        3.585600   -2.885600   11.072500
     23          6           0        4.394600   -2.227600   10.144900
     24          6           0        4.032700   -2.202500    8.797300
     25          1           0        1.798600   -4.024200   11.382200
     26          1           0        3.865600   -2.905200   12.115800
     27          1           0        5.301000   -1.737400   10.469000
     28          1           0        4.663000   -1.691700    8.085100
     29          6           0        0.824600   -4.115000    8.627100
     30          6           0        0.525300   -5.603800    8.905000
     31          6           0       -0.579200   -5.198200    9.885300
     32          6           0       -0.562500   -3.812400    9.233600
     33          1           0        0.159500   -6.142200    8.028700
     34          1           0        1.354200   -6.167200    9.336000
     35          1           0       -1.515700   -5.749700    9.790400
     36          1           0       -0.257200   -5.194000   10.928100
     37          1           0       -1.341300   -3.670800    8.482100
     38          1           0       -0.588900   -2.967300    9.923000
     39          1           0       -3.391000   -3.985600    2.584000
     40          1           0       -2.028200   -3.513000    4.575700
 ---------------------------------------------------------------------
                    Distance matrix (angstroms):
                    1          2          3          4          5
     1  C    0.000000
     2  C    1.392785   0.000000
     3  C    2.429292   1.401486   0.000000
     4  C    2.786919   2.411088   1.401369   0.000000
     5  C    2.416687   2.786879   2.429247   1.392866   0.000000
     6  C    1.392048   2.407559   2.798656   2.407667   1.392114
     7  C    3.797458   2.515041   1.492681   2.515050   3.797510
     8  C    4.392479   3.032290   2.519669   3.709156   4.885231
     9  H    3.866786   3.395369   2.157104   1.080018   2.136799
    10  H    3.395429   3.867217   3.406873   2.148933   1.080344
    11  H    2.144638   3.386454   3.879247   3.386518   2.144620
    12  H    4.042089   2.780536   2.721072   3.975478   4.942281
    13  C    4.884819   3.708680   2.519268   3.032187   4.392460
    14  C    6.154374   4.887025   3.804944   4.394887   5.770698
    15  H    4.954810   3.987155   2.732845   2.792641   4.054342
    16  H    7.011001   5.803369   4.662719   5.055975   6.405027
    17  C    5.773872   4.398106   3.809780   4.892623   6.159615
    18  C    6.520732   5.157696   4.301046   5.159301   6.522066
    19  C    7.909202   6.529350   5.746561   6.614109   7.979507
    20  C    8.082002   6.703177   6.140163   7.161256   8.466527
    21  C    9.422458   8.049560   7.531781   8.553957   9.857667
    22  C   10.452275   9.064698   8.421061   9.345691  10.697378
    23  C   10.312752   8.930923   8.132723   8.927243  10.309631
    24  C    9.109211   7.744099   6.868051   7.606802   8.992642
    25  H    9.771812   8.430829   8.050724   9.137641  10.388898
    26  H   11.468533  10.083203   9.475375  10.412762  11.759910
    27  H   11.241561   9.868515   9.016747   9.738817  11.127748
    28  H    9.222043   7.899263   6.910550   7.499014   8.881061
    29  C    6.868943   5.526269   5.157332   6.295285   7.502685
    30  C    7.168699   5.946716   5.676784   6.740130   7.840294
    31  C    7.661452   6.478130   6.487046   7.698718   8.719712
    32  C    6.943346   5.674258   5.678077   6.972829   8.041617
    33  H    6.405057   5.274581   5.055100   6.060443   7.067009
    34  H    8.036518   6.826028   6.416506   7.355345   8.491061
    35  H    7.520021   6.463366   6.668635   7.888907   8.777663
    36  H    8.738528   7.535165   7.492936   8.689634   9.753309
    37  H    6.052851   4.842799   5.057085   6.413371   7.372506
    38  H    7.674968   6.398365   6.418560   7.733129   8.820986
    39  H    1.080369   2.148870   3.406945   3.867283   3.395459
    40  H    2.136867   1.080100   2.157194   3.395374   3.866826
                    6          7          8          9         10
     6  C    0.000000
     7  C    4.291337   0.000000
     8  C    5.154682   1.402968   0.000000
     9  H    3.380722   2.728609   3.985415   0.000000
    10  H    2.149140   4.662639   5.807567   2.459090   0.000000
    11  H    1.080591   5.371928   6.210547   4.270498   2.472282
    12  H    4.963301   2.149233   1.079231   4.455154   5.921789
    13  C    5.154501   1.402553   2.406796   2.791655   5.062502
    14  C    6.519862   2.435806   2.784940   4.055154   6.414135
    15  H    4.976138   2.156681   3.391836   2.362408   4.565030
    16  H    7.262446   3.407663   3.864173   4.556600   6.933005
    17  C    6.524067   2.441194   1.398375   4.960363   7.023305
    18  C    7.099702   2.808366   2.408169   4.979120   7.273129
    19  C    8.542787   4.256468   3.641704   6.389974   8.718505
    20  C    8.865531   4.721693   3.723599   7.086365   9.285905
    21  C   10.240284   6.120374   5.087333   8.457269  10.672395
    22  C   11.192026   6.952189   6.098757   9.126492  11.450854
    23  C   10.931371   6.640051   6.044878   8.591175  10.989058
    24  C    9.660068   5.381753   4.956372   7.248492   9.651807
    25  H   10.667952   6.714820   5.542427   9.124344  11.242055
    26  H   12.235550   8.014097   7.116674  10.195088  12.516884
    27  H   11.809355   7.529146   7.034123   9.332573  11.758739
    28  H    9.652673   5.471539   5.320483   7.034323   9.458036
    29  C    7.744470   3.898714   2.638129   6.405838   8.393082
    30  C    8.022732   4.635622   3.306464   6.885092   8.703433
    31  C    8.697910   5.529902   4.129971   7.988273   9.664339
    32  C    8.023152   4.637648   3.306211   7.289152   9.023643
    33  H    7.212183   4.224325   2.953422   6.269622   7.916681
    34  H    8.789121   5.322966   4.100145   7.369977   9.281153
    35  H    8.609157   5.921302   4.531852   8.290603   9.740404
    36  H    9.769761   6.448617   5.067243   8.917772  10.684181
    37  H    7.212818   4.227368   2.952958   6.870930   8.396740
    38  H    8.789820   5.326125   4.099776   8.034124   9.812220
    39  H    2.149096   4.662573   5.062430   4.947146   4.287640
    40  H    3.380733   2.728443   2.791441   4.297752   4.947161
                   11         12         13         14         15
    11  H    0.000000
    12  H    5.956473   0.000000
    13  C    6.210347   3.386728   0.000000
    14  C    7.584405   3.864090   1.395110   0.000000
    15  H    5.969123   4.288770   1.079759   2.136696   0.000000
    16  H    8.300884   4.943339   2.144497   1.079280   2.449164
    17  C    7.588524   2.144687   2.790632   2.418516   3.870187
    18  C    8.180293   3.383296   2.410979   1.393882   3.382534
    19  C    9.622822   4.461591   3.829439   2.604632   4.726867
    20  C    9.928765   4.253652   4.682914   3.686515   5.691945
    21  C   11.297859   5.521943   6.042625   4.956698   7.024458
    22  C   12.265306   6.676885   6.614270   5.357407   7.492598
    23  C   12.011959   6.806785   6.035784   4.676482   6.783845
    24  C   10.739013   5.830115   4.675948   3.300319   5.393530
    25  H   11.701023   5.787013   6.818634   5.842123   7.842288
    26  H   13.305604   7.636539   7.694666   6.432967   8.569067
    27  H   12.888306   7.836946   6.798027   5.408502   7.447352
    28  H   10.719236   6.293042   4.521926   3.135447   5.051043
    29  C    8.778227   2.896808   4.303235   3.732417   5.380701
    30  C    8.998118   3.169122   5.268939   4.879033   6.329435
    31  C    9.633756   3.801216   6.251316   5.866090   7.324993
    32  C    8.998312   3.175771   5.272866   4.882836   6.329276
    33  H    8.150193   2.591395   5.060448   4.948017   6.072904
    34  H    9.765827   4.084934   5.791813   5.256238   6.824024
    35  H    9.474068   3.951402   6.825168   6.624001   7.874285
    36  H   10.715280   4.843241   7.036704   6.480156   8.116408
    37  H    8.150483   2.602487   5.066089   4.953188   6.072690
    38  H    9.766164   4.094141   5.798202   5.262546   6.823774
    39  H    2.472340   4.553975   5.807056   7.017659   5.934015
    40  H    4.270578   2.352690   3.984629   4.953924   4.465161
                   16         17         18         19         20
    16  H    0.000000
    17  C    3.399420   0.000000
    18  C    2.155510   1.391466   0.000000
    19  C    2.915996   2.317808   1.466768   0.000000
    20  C    4.210958   2.341599   2.318771   1.394129   0.000000
    21  C    5.323542   3.724617   3.643243   2.410827   1.399117
    22  C    5.449996   4.700747   4.233128   2.784866   2.423550
    23  C    4.522919   4.686352   3.831734   2.414082   2.799517
    24  C    3.136016   3.687379   2.605839   1.396423   2.425275
    25  H    6.304557   4.273801   4.476400   3.394239   2.158157
    26  H    6.489164   5.723192   5.311449   3.865263   3.401398
    27  H    5.069081   5.701750   4.739393   3.393602   3.879748
    28  H    2.626316   4.209542   2.915888   2.157504   3.405414
    29  C    4.567557   1.523715   2.412711   2.414948   1.526580
    30  C    5.748029   2.626193   3.654064   3.656668   2.628060
    31  C    6.737339   3.505196   4.581904   4.432915   3.181250
    32  C    5.751119   2.626433   3.656614   3.658292   2.628157
    33  H    5.900870   2.742860   3.925056   4.282110   3.489648
    34  H    6.007210   3.287560   4.030889   3.775818   2.757820
    35  H    7.561303   4.208895   5.423034   5.440652   4.241753
    36  H    7.252238   4.246923   5.122910   4.662383   3.289266
    37  H    5.905034   2.743094   3.928300   4.283985   3.489665
    38  H    6.012494   3.287888   4.035010   3.778607   2.757944
    39  H    7.903820   6.416469   7.271011   8.604255   8.657592
    40  H    5.928750   4.056795   4.975953   6.233277   6.241281
                   21         22         23         24         25
    21  C    0.000000
    22  C    1.396217   0.000000
    23  C    2.418529   1.395667   0.000000
    24  C    2.792677   2.417242   1.395574   0.000000
    25  H    1.079291   2.141423   3.390855   3.871886   0.000000
    26  H    2.149923   1.080398   2.150216   3.396197   2.462279
    27  H    3.397505   2.150621   1.080230   2.149298   4.281378
    28  H    3.872207   3.392749   2.145228   1.079548   4.951385
    29  C    2.643442   3.887741   4.314035   3.738787   2.923610
    30  C    3.312156   4.631642   5.282761   4.886952   3.202023
    31  C    3.516961   4.909493   5.799185   5.606031   3.045147
    32  C    3.310926   4.631117   5.283455   4.888558   3.199396
    33  H    4.341996   5.622128   6.143164   5.577962   4.291682
    34  H    3.141830   4.331683   5.041706   4.814915   2.996143
    35  H    4.600370   5.989166   6.889304   6.659851   4.061498
    36  H    3.164839   4.485162   5.572448   5.647355   2.408517
    37  H    4.340621   5.621482   6.143963   5.579886   4.288874
    38  H    3.139464   4.330644   5.042982   4.817811   2.991063
    39  H    9.951560  11.042535  10.994241   9.843570  10.214782
    40  H    7.528195   8.609111   8.597709   7.501588   7.825226
                   26         27         28         29         30
    26  H    0.000000
    27  H    2.477111   0.000000
    28  H    4.284270   2.468220   0.000000
    29  C    4.783547   5.392934   4.571593   0.000000
    30  C    5.361836   6.340541   5.753027   1.543805   0.000000
    31  C    5.476242   6.847963   6.558729   2.174177   1.531476
    32  C    5.360798   6.341330   5.755195   1.543844   2.121415
    33  H    6.396697   7.196690   6.331796   2.215848   1.091598
    34  H    4.967400   6.040203   5.704648   2.234847   1.090988
    35  H    6.515908   7.938920   7.586287   3.082615   2.229552
    36  H    4.862789   6.561436   6.675112   2.762089   2.207527
    37  H    6.395446   7.197635   6.334514   2.215730   2.720208
    38  H    4.965360   6.041663   5.708545   2.234850   3.037910
    39  H   12.028330  11.948995  10.019531   7.369334   7.609929
    40  H    9.589547   9.570837   7.772077   4.991464   5.443771
                   31         32         33         34         35
    31  C    0.000000
    32  C    1.531481   0.000000
    33  H    2.209927   2.720485   0.000000
    34  H    2.231306   3.037978   1.771148   0.000000
    35  H    1.090959   2.229742   2.462506   2.935492   0.000000
    36  H    1.091391   2.207568   3.078838   2.465464   1.785213
    37  H    2.209687   1.091482   2.926737   3.771853   2.462497
    38  H    2.231240   1.090946   3.772064   3.789402   2.935693
    39  H    7.917424   7.228249   6.848484   8.536147   7.652516
    40  H    5.755984   4.892234   4.860240   6.414504   5.697243
                   36         37         38         39         40
    36  H    0.000000
    37  H    3.078689   0.000000
    38  H    2.465450   1.771217   0.000000
    39  H    8.994717   6.252036   7.921466   0.000000
    40  H    6.805526   3.969470   5.564440   2.459155   0.000000
 Stoichiometry    C22H18
 Framework group  C1[X(C22H18)]
 Deg. of freedom   114
 Full point group                 C1      NOp   1
 Largest Abelian subgroup         C1      NOp   1
 Largest concise Abelian subgroup C1      NOp   1
                         Standard orientation:                         
 ---------------------------------------------------------------------
 Center     Atomic      Atomic             Coordinates (Angstroms)
 Number     Number       Type             X           Y           Z
 ---------------------------------------------------------------------
      1          6           0       -5.128283    1.135861   -0.684772
      2          6           0       -3.764569    0.853107   -0.698364
      3          6           0       -3.258426   -0.270031   -0.030125
      4          6           0       -4.152027   -1.104883    0.654223
      5          6           0       -5.516513   -0.825734    0.672356
      6          6           0       -5.999361    0.294542    0.001669
      7          6           0       -1.796492   -0.570957   -0.047098
      8          6           0       -0.847392    0.459408    0.029553
      9          1           0       -3.786939   -1.969093    1.189284
     10          1           0       -6.195627   -1.474080    1.206767
     11          1           0       -7.057693    0.512395    0.013896
     12          1           0       -1.181549    1.481915    0.116492
     13          6           0       -1.333598   -1.891620   -0.140548
     14          6           0        0.032034   -2.176328   -0.158595
     15          1           0       -2.036784   -2.707609   -0.215181
     16          1           0        0.362078   -3.201007   -0.235724
     17          6           0        0.523781    0.185367    0.014039
     18          6           0        0.954580   -1.134336   -0.080681
     19          6           0        2.421323   -1.142451   -0.077959
     20          6           0        2.865348    0.175369    0.020984
     21          6           0        4.239867    0.435609    0.043341
     22          6           0        5.155539   -0.615670   -0.032683
     23          6           0        4.702045   -1.931913   -0.131343
     24          6           0        3.332277   -2.198077   -0.154202
     25          1           0        4.605366    1.448271    0.119470
     26          1           0        6.215912   -0.409389   -0.014920
     27          1           0        5.410430   -2.745321   -0.190133
     28          1           0        2.988331   -3.218504   -0.230713
     29          6           0        1.696641    1.154967    0.091395
     30          6           0        1.697456    2.193105    1.234024
     31          6           0        2.169581    3.270863    0.253740
     32          6           0        1.704576    2.353839   -0.881281
     33          1           0        0.705263    2.380280    1.648879
     34          1           0        2.380002    1.972256    2.055980
     35          1           0        1.651645    4.228392    0.324953
     36          1           0        3.248783    3.432727    0.269712
     37          1           0        0.715114    2.602118   -1.269422
     38          1           0        2.392750    2.259390   -1.722506
     39          1           0       -5.507747    2.002046   -1.207199
     40          1           0       -3.099655    1.504999   -1.245670
 ---------------------------------------------------------------------
 Rotational constants (GHZ):           0.6837585           0.1528535           0.1293855
 Standard basis: def2TZVP (5D, 7F)
 There are   900 symmetry adapted cartesian basis functions of A   symmetry.
 There are   790 symmetry adapted basis functions of A   symmetry.
   790 basis functions,  1266 primitive gaussians,   900 cartesian basis functions
    75 alpha electrons       75 beta electrons
       nuclear repulsion energy      1597.1857056098 Hartrees.
 NAtoms=   40 NActive=   40 NUniq=   40 SFac= 1.00D+00 NAtFMM=   60 NAOKFM=F Big=F
 Integral buffers will be    131072 words long.
 Raffenetti 2 integral format.
 Two-electron integral symmetry is turned on.
 One-electron integrals computed using PRISM.
   1 Symmetry operations used in ECPInt.
 ECPInt:  NShTT=   49455 NPrTT=  150964 LenC2=   42063 LenP2D=   91349.
 LDataN:  DoStor=T MaxTD1= 6 Len=  172
 Number of processors reduced to  30 by ecpmxn.
 NBasis=   790 RedAO= T EigKep=  4.56D-06  NBF=   790
 NBsUse=   790 1.00D-06 EigRej= -1.00D+00 NBFU=   790
 ExpMin= 9.52D-02 ExpMax= 1.36D+04 ExpMxC= 4.63D+02 IAcc=3 IRadAn=         5 AccDes= 0.00D+00
 Harris functional with IExCor= 1009 and IRadAn=       5 diagonalized for initial guess.
 HarFok:  IExCor= 1009 AccDes= 0.00D+00 IRadAn=         5 IDoV= 1 UseB2=F ITyADJ=14
 ICtDFT=  3500011 ScaDFX=  1.000000  1.000000  1.000000  1.000000
 FoFCou: FMM=F IPFlag=           0 FMFlag=      100000 FMFlg1=           0
         NFxFlg=           0 DoJE=T BraDBF=F KetDBF=T FulRan=T
         wScrn=  0.000000 ICntrl=       500 IOpCl=  0 I1Cent=   200000004 NGrid=           0
         NMat0=    1 NMatS0=      1 NMatT0=    0 NMatD0=    1 NMtDS0=    0 NMtDT0=    0
 Petite list used in FoFCou.
 Requested convergence on RMS density matrix=1.00D-08 within 128 cycles.
 Requested convergence on MAX density matrix=1.00D-06.
 Requested convergence on             energy=1.00D-06.
 No special actions if energy rises.
 Integral accuracy reduced to 1.0D-05 until final iterations.
 Problem detected with inexpensive integrals.
 Switching to full accuracy and repeating last cycle.
 SCF Done:  E(RM062X) =  -849.115008561     A.U. after   13 cycles
            NFock= 13  Conv=0.83D-08     -V/T= 2.0053

 **********************************************************************

            Population analysis using the SCF Density.

 **********************************************************************

 Orbital symmetries:
       Occupied  (A) (A) (A) (A) (A) (A) (A) (A) (A) (A) (A) (A)
                 (A) (A) (A) (A) (A) (A) (A) (A) (A) (A) (A) (A)
                 (A) (A) (A) (A) (A) (A) (A) (A) (A) (A) (A) (A)
                 (A) (A) (A) (A) (A) (A) (A) (A) (A) (A) (A) (A)
                 (A) (A) (A) (A) (A) (A) (A) (A) (A) (A) (A) (A)
                 (A) (A) (A) (A) (A) (A) (A) (A) (A) (A) (A) (A)
                 (A) (A) (A)
       Virtual   (A) (A) (A) (A) (A) (A) (A) (A) (A) (A) (A) (A)
                 (A) (A) (A) (A) (A) (A) (A) (A) (A) (A) (A) (A)
                 (A) (A) (A) (A) (A) (A) (A) (A) (A) (A) (A) (A)
                 (A) (A) (A) (A) (A) (A) (A) (A) (A) (A) (A) (A)
                 (A) (A) (A) (A) (A) (A) (A) (A) (A) (A) (A) (A)
                 (A) (A) (A) (A) (A) (A) (A) (A) (A) (A) (A) (A)
                 (A) (A) (A) (A) (A) (A) (A) (A) (A) (A) (A) (A)
                 (A) (A) (A) (A) (A) (A) (A) (A) (A) (A) (A) (A)
                 (A) (A) (A) (A) (A) (A) (A) (A) (A) (A) (A) (A)
                 (A) (A) (A) (A) (A) (A) (A) (A) (A) (A) (A) (A)
                 (A) (A) (A) (A) (A) (A) (A) (A) (A) (A) (A) (A)
                 (A) (A) (A) (A) (A) (A) (A) (A) (A) (A) (A) (A)
                 (A) (A) (A) (A) (A) (A) (A) (A) (A) (A) (A) (A)
                 (A) (A) (A) (A) (A) (A) (A) (A) (A) (A) (A) (A)
                 (A) (A) (A) (A) (A) (A) (A) (A) (A) (A) (A) (A)
                 (A) (A) (A) (A) (A) (A) (A) (A) (A) (A) (A) (A)
                 (A) (A) (A) (A) (A) (A) (A) (A) (A) (A) (A) (A)
                 (A) (A) (A) (A) (A) (A) (A) (A) (A) (A) (A) (A)
                 (A) (A) (A) (A) (A) (A) (A) (A) (A) (A) (A) (A)
                 (A) (A) (A) (A) (A) (A) (A) (A) (A) (A) (A) (A)
                 (A) (A) (A) (A) (A) (A) (A) (A) (A) (A) (A) (A)
                 (A) (A) (A) (A) (A) (A) (A) (A) (A) (A) (A) (A)
                 (A) (A) (A) (A) (A) (A) (A) (A) (A) (A) (A) (A)
                 (A) (A) (A) (A) (A) (A) (A) (A) (A) (A) (A) (A)
                 (A) (A) (A) (A) (A) (A) (A) (A) (A) (A) (A) (A)
                 (A) (A) (A) (A) (A) (A) (A) (A) (A) (A) (A) (A)
                 (A) (A) (A) (A) (A) (A) (A) (A) (A) (A) (A) (A)
                 (A) (A) (A) (A) (A) (A) (A) (A) (A) (A) (A) (A)
                 (A) (A) (A) (A) (A) (A) (A) (A) (A) (A) (A) (A)
                 (A) (A) (A) (A) (A) (A) (A) (A) (A) (A) (A) (A)
                 (A) (A) (A) (A) (A) (A) (A) (A) (A) (A) (A) (A)
                 (A) (A) (A) (A) (A) (A) (A) (A) (A) (A) (A) (A)
                 (A) (A) (A) (A) (A) (A) (A) (A) (A) (A) (A) (A)
                 (A) (A) (A) (A) (A) (A) (A) (A) (A) (A) (A) (A)
                 (A) (A) (A) (A) (A) (A) (A) (A) (A) (A) (A) (A)
                 (A) (A) (A) (A) (A) (A) (A) (A) (A) (A) (A) (A)
                 (A) (A) (A) (A) (A) (A) (A) (A) (A) (A) (A) (A)
                 (A) (A) (A) (A) (A) (A) (A) (A) (A) (A) (A) (A)
                 (A) (A) (A) (A) (A) (A) (A) (A) (A) (A) (A) (A)
                 (A) (A) (A) (A) (A) (A) (A) (A) (A) (A) (A) (A)
                 (A) (A) (A) (A) (A) (A) (A) (A) (A) (A) (A) (A)
                 (A) (A) (A) (A) (A) (A) (A) (A) (A) (A) (A) (A)
                 (A) (A) (A) (A) (A) (A) (A) (A) (A) (A) (A) (A)
                 (A) (A) (A) (A) (A) (A) (A) (A) (A) (A) (A) (A)
                 (A) (A) (A) (A) (A) (A) (A) (A) (A) (A) (A) (A)
                 (A) (A) (A) (A) (A) (A) (A) (A) (A) (A) (A) (A)
                 (A) (A) (A) (A) (A) (A) (A) (A) (A) (A) (A) (A)
                 (A) (A) (A) (A) (A) (A) (A) (A) (A) (A) (A) (A)
                 (A) (A) (A) (A) (A) (A) (A) (A) (A) (A) (A) (A)
                 (A) (A) (A) (A) (A) (A) (A) (A) (A) (A) (A) (A)
                 (A) (A) (A) (A) (A) (A) (A) (A) (A) (A) (A) (A)
                 (A) (A) (A) (A) (A) (A) (A) (A) (A) (A) (A) (A)
                 (A) (A) (A) (A) (A) (A) (A) (A) (A) (A) (A) (A)
                 (A) (A) (A) (A) (A) (A) (A) (A) (A) (A) (A) (A)
                 (A) (A) (A) (A) (A) (A) (A) (A) (A) (A) (A) (A)
                 (A) (A) (A) (A) (A) (A) (A) (A) (A) (A) (A) (A)
                 (A) (A) (A) (A) (A) (A) (A) (A) (A) (A) (A) (A)
                 (A) (A) (A) (A) (A) (A) (A) (A) (A) (A) (A) (A)
                 (A) (A) (A) (A) (A) (A) (A) (A) (A) (A) (A) (A)
                 (A) (A) (A) (A) (A) (A) (A)
 The electronic state is 1-A.
 Alpha  occ. eigenvalues --  -10.55872 -10.55554 -10.55469 -10.54758 -10.54653
 Alpha  occ. eigenvalues --  -10.54499 -10.54430 -10.54391 -10.54376 -10.54361
 Alpha  occ. eigenvalues --  -10.54354 -10.54352 -10.54325 -10.54299 -10.54281
 Alpha  occ. eigenvalues --  -10.54246 -10.54222 -10.54173 -10.54136 -10.53853
 Alpha  occ. eigenvalues --  -10.53812 -10.53396  -1.00404  -0.97076  -0.95252
 Alpha  occ. eigenvalues --   -0.94703  -0.89701  -0.85961  -0.84638  -0.84467
 Alpha  occ. eigenvalues --   -0.83683  -0.80015  -0.76209  -0.75653  -0.72457
 Alpha  occ. eigenvalues --   -0.69822  -0.68887  -0.67458  -0.66211  -0.65084
 Alpha  occ. eigenvalues --   -0.62394  -0.60057  -0.58749  -0.56197  -0.55892
 Alpha  occ. eigenvalues --   -0.54239  -0.53835  -0.52426  -0.51481  -0.51007
 Alpha  occ. eigenvalues --   -0.50297  -0.49126  -0.48971  -0.48654  -0.48338
 Alpha  occ. eigenvalues --   -0.46787  -0.46337  -0.44519  -0.43607  -0.43120
 Alpha  occ. eigenvalues --   -0.42514  -0.42124  -0.41382  -0.40390  -0.39946
 Alpha  occ. eigenvalues --   -0.39199  -0.37071  -0.36950  -0.36110  -0.34901
 Alpha  occ. eigenvalues --   -0.31021  -0.30845  -0.30376  -0.29726  -0.25944
 Alpha virt. eigenvalues --   -0.02008   0.00441   0.01861   0.02561   0.03279
 Alpha virt. eigenvalues --    0.06310   0.07370   0.07751   0.08677   0.08837
 Alpha virt. eigenvalues --    0.09591   0.09706   0.10735   0.10998   0.11735
 Alpha virt. eigenvalues --    0.12665   0.13201   0.13256   0.13996   0.14192
 Alpha virt. eigenvalues --    0.15104   0.15699   0.15900   0.16057   0.16979
 Alpha virt. eigenvalues --    0.17873   0.18431   0.19051   0.19380   0.19926
 Alpha virt. eigenvalues --    0.20646   0.20773   0.21052   0.21473   0.22487
 Alpha virt. eigenvalues --    0.22979   0.23103   0.23910   0.24250   0.24544
 Alpha virt. eigenvalues --    0.25034   0.25110   0.25564   0.25689   0.26215
 Alpha virt. eigenvalues --    0.26460   0.26694   0.26805   0.27712   0.27903
 Alpha virt. eigenvalues --    0.28149   0.28665   0.30040   0.30361   0.30908
 Alpha virt. eigenvalues --    0.31256   0.31487   0.32133   0.32404   0.32837
 Alpha virt. eigenvalues --    0.33510   0.34366   0.34747   0.35438   0.35597
 Alpha virt. eigenvalues --    0.36108   0.36549   0.37297   0.37528   0.37718
 Alpha virt. eigenvalues --    0.38280   0.38550   0.38951   0.39398   0.39807
 Alpha virt. eigenvalues --    0.40178   0.40771   0.41098   0.41498   0.41882
 Alpha virt. eigenvalues --    0.41961   0.42169   0.42645   0.43144   0.43430
 Alpha virt. eigenvalues --    0.43900   0.44239   0.44416   0.44511   0.44881
 Alpha virt. eigenvalues --    0.45159   0.45808   0.45871   0.46259   0.46511
 Alpha virt. eigenvalues --    0.47356   0.47540   0.47900   0.48569   0.48975
 Alpha virt. eigenvalues --    0.49108   0.49707   0.49838   0.50625   0.51176
 Alpha virt. eigenvalues --    0.51359   0.52365   0.53044   0.53238   0.53425
 Alpha virt. eigenvalues --    0.53801   0.54076   0.54738   0.55296   0.55751
 Alpha virt. eigenvalues --    0.56596   0.57056   0.57888   0.58565   0.58937
 Alpha virt. eigenvalues --    0.59737   0.60247   0.61861   0.61971   0.62801
 Alpha virt. eigenvalues --    0.63359   0.64247   0.64950   0.66056   0.66517
 Alpha virt. eigenvalues --    0.67063   0.67930   0.68491   0.68981   0.69409
 Alpha virt. eigenvalues --    0.69479   0.70024   0.70745   0.71351   0.72212
 Alpha virt. eigenvalues --    0.72696   0.73122   0.74038   0.74659   0.74960
 Alpha virt. eigenvalues --    0.75425   0.76008   0.76417   0.77247   0.77970
 Alpha virt. eigenvalues --    0.78130   0.78692   0.78936   0.79357   0.80672
 Alpha virt. eigenvalues --    0.81745   0.81989   0.82544   0.82951   0.83162
 Alpha virt. eigenvalues --    0.84261   0.84810   0.85761   0.86313   0.87041
 Alpha virt. eigenvalues --    0.87452   0.88385   0.88853   0.89598   0.90206
 Alpha virt. eigenvalues --    0.91262   0.91669   0.92210   0.92558   0.93713
 Alpha virt. eigenvalues --    0.94165   0.94297   0.94794   0.95546   0.96235
 Alpha virt. eigenvalues --    0.97009   0.97977   0.98262   0.99248   1.00209
 Alpha virt. eigenvalues --    1.00860   1.01331   1.01859   1.02653   1.03067
 Alpha virt. eigenvalues --    1.03888   1.04245   1.05090   1.05421   1.06341
 Alpha virt. eigenvalues --    1.06798   1.08501   1.09236   1.09897   1.10368
 Alpha virt. eigenvalues --    1.11161   1.12038   1.12518   1.13474   1.14321
 Alpha virt. eigenvalues --    1.15064   1.15592   1.16834   1.17114   1.18357
 Alpha virt. eigenvalues --    1.19208   1.19934   1.20834   1.21648   1.22224
 Alpha virt. eigenvalues --    1.23169   1.23689   1.23972   1.24333   1.25391
 Alpha virt. eigenvalues --    1.25927   1.26127   1.26457   1.26708   1.27938
 Alpha virt. eigenvalues --    1.28074   1.28858   1.29847   1.30397   1.30845
 Alpha virt. eigenvalues --    1.31240   1.31549   1.32480   1.33611   1.33918
 Alpha virt. eigenvalues --    1.34634   1.36209   1.36960   1.38123   1.39001
 Alpha virt. eigenvalues --    1.39075   1.40172   1.41074   1.42463   1.43079
 Alpha virt. eigenvalues --    1.44433   1.45302   1.45934   1.46305   1.47397
 Alpha virt. eigenvalues --    1.47722   1.48486   1.49105   1.49509   1.51042
 Alpha virt. eigenvalues --    1.52231   1.52524   1.53060   1.53484   1.53890
 Alpha virt. eigenvalues --    1.55154   1.55488   1.55943   1.57113   1.58152
 Alpha virt. eigenvalues --    1.58728   1.59455   1.59758   1.60854   1.61344
 Alpha virt. eigenvalues --    1.62126   1.62724   1.63697   1.64125   1.64872
 Alpha virt. eigenvalues --    1.66119   1.66990   1.67556   1.69085   1.69176
 Alpha virt. eigenvalues --    1.69615   1.70232   1.70511   1.71760   1.71905
 Alpha virt. eigenvalues --    1.73748   1.74248   1.74528   1.75344   1.75735
 Alpha virt. eigenvalues --    1.76186   1.76707   1.77082   1.77345   1.78095
 Alpha virt. eigenvalues --    1.78520   1.79081   1.79464   1.80496   1.81229
 Alpha virt. eigenvalues --    1.82126   1.83453   1.84359   1.86092   1.86597
 Alpha virt. eigenvalues --    1.86994   1.88207   1.89426   1.90083   1.90665
 Alpha virt. eigenvalues --    1.90932   1.91638   1.93118   1.94045   1.95585
 Alpha virt. eigenvalues --    1.95823   1.96486   1.98693   2.00131   2.00418
 Alpha virt. eigenvalues --    2.01608   2.03194   2.04644   2.05488   2.06640
 Alpha virt. eigenvalues --    2.07169   2.07672   2.08324   2.08566   2.09864
 Alpha virt. eigenvalues --    2.10091   2.10251   2.11040   2.12952   2.13315
 Alpha virt. eigenvalues --    2.15057   2.15725   2.16291   2.17941   2.18356
 Alpha virt. eigenvalues --    2.19833   2.20547   2.21492   2.22497   2.23418
 Alpha virt. eigenvalues --    2.23926   2.24280   2.25268   2.25826   2.26476
 Alpha virt. eigenvalues --    2.26927   2.27633   2.28433   2.28784   2.30551
 Alpha virt. eigenvalues --    2.31176   2.33687   2.34599   2.36083   2.36508
 Alpha virt. eigenvalues --    2.37055   2.38355   2.41122   2.41585   2.42552
 Alpha virt. eigenvalues --    2.44004   2.45298   2.46625   2.47131   2.47481
 Alpha virt. eigenvalues --    2.48281   2.48900   2.50393   2.50555   2.51973
 Alpha virt. eigenvalues --    2.52363   2.52659   2.54149   2.54798   2.56718
 Alpha virt. eigenvalues --    2.57093   2.57872   2.59358   2.60082   2.61229
 Alpha virt. eigenvalues --    2.61555   2.62117   2.62256   2.63814   2.64020
 Alpha virt. eigenvalues --    2.64629   2.64945   2.65300   2.65919   2.66563
 Alpha virt. eigenvalues --    2.66964   2.67413   2.67998   2.68425   2.69032
 Alpha virt. eigenvalues --    2.69462   2.69803   2.69948   2.70694   2.71398
 Alpha virt. eigenvalues --    2.71710   2.72113   2.72875   2.73013   2.73724
 Alpha virt. eigenvalues --    2.73956   2.74377   2.75091   2.75864   2.76630
 Alpha virt. eigenvalues --    2.76858   2.77494   2.78039   2.78339   2.79027
 Alpha virt. eigenvalues --    2.79668   2.80135   2.80919   2.82389   2.82869
 Alpha virt. eigenvalues --    2.83478   2.83554   2.83968   2.84627   2.85023
 Alpha virt. eigenvalues --    2.85447   2.86257   2.86561   2.86926   2.87370
 Alpha virt. eigenvalues --    2.88647   2.89060   2.89788   2.90119   2.91066
 Alpha virt. eigenvalues --    2.91740   2.92199   2.93512   2.93935   2.94749
 Alpha virt. eigenvalues --    2.95783   2.95906   2.96749   2.97144   2.97451
 Alpha virt. eigenvalues --    2.98521   2.99526   3.00793   3.01686   3.02638
 Alpha virt. eigenvalues --    3.03465   3.04150   3.05314   3.05406   3.05905
 Alpha virt. eigenvalues --    3.06770   3.06990   3.07207   3.08684   3.09440
 Alpha virt. eigenvalues --    3.10371   3.10610   3.11330   3.11650   3.12492
 Alpha virt. eigenvalues --    3.13182   3.14169   3.14591   3.15414   3.15789
 Alpha virt. eigenvalues --    3.15815   3.16724   3.17174   3.17522   3.18783
 Alpha virt. eigenvalues --    3.19040   3.19531   3.20294   3.20784   3.21039
 Alpha virt. eigenvalues --    3.21469   3.22516   3.23628   3.24167   3.24888
 Alpha virt. eigenvalues --    3.25019   3.25899   3.26124   3.26602   3.27440
 Alpha virt. eigenvalues --    3.27694   3.28250   3.28837   3.29196   3.30100
 Alpha virt. eigenvalues --    3.30618   3.31612   3.31849   3.32905   3.33493
 Alpha virt. eigenvalues --    3.33814   3.34124   3.35404   3.35813   3.36682
 Alpha virt. eigenvalues --    3.37047   3.37325   3.38181   3.39025   3.39291
 Alpha virt. eigenvalues --    3.40567   3.40711   3.41499   3.41978   3.42557
 Alpha virt. eigenvalues --    3.43101   3.43809   3.44349   3.44613   3.45584
 Alpha virt. eigenvalues --    3.46299   3.46503   3.47246   3.47733   3.49476
 Alpha virt. eigenvalues --    3.49932   3.50149   3.51066   3.51701   3.51952
 Alpha virt. eigenvalues --    3.52394   3.53468   3.53912   3.54709   3.55324
 Alpha virt. eigenvalues --    3.55505   3.56505   3.56585   3.57887   3.58015
 Alpha virt. eigenvalues --    3.58522   3.59231   3.59699   3.60472   3.61220
 Alpha virt. eigenvalues --    3.62328   3.62828   3.63145   3.64252   3.64741
 Alpha virt. eigenvalues --    3.66299   3.66869   3.69308   3.69796   3.71097
 Alpha virt. eigenvalues --    3.74518   3.74701   3.75452   3.76072   3.77321
 Alpha virt. eigenvalues --    3.77949   3.79227   3.80110   3.80789   3.81907
 Alpha virt. eigenvalues --    3.84529   3.86380   3.86790   3.88101   3.89139
 Alpha virt. eigenvalues --    3.90748   3.92723   3.93405   3.94667   3.95507
 Alpha virt. eigenvalues --    3.96145   3.96788   3.97620   3.98484   3.99787
 Alpha virt. eigenvalues --    4.00721   4.02453   4.03765   4.04493   4.04728
 Alpha virt. eigenvalues --    4.05309   4.06482   4.06599   4.07269   4.08385
 Alpha virt. eigenvalues --    4.09159   4.11039   4.12093   4.13562   4.13626
 Alpha virt. eigenvalues --    4.14614   4.15090   4.15539   4.16371   4.17208
 Alpha virt. eigenvalues --    4.17528   4.18120   4.18289   4.19007   4.19547
 Alpha virt. eigenvalues --    4.20177   4.20548   4.21596   4.22031   4.23689
 Alpha virt. eigenvalues --    4.24483   4.25313   4.27048   4.27857   4.28028
 Alpha virt. eigenvalues --    4.28344   4.29998   4.30251   4.30974   4.33534
 Alpha virt. eigenvalues --    4.34026   4.34953   4.35764   4.35902   4.37359
 Alpha virt. eigenvalues --    4.38114   4.40559   4.41119   4.41993   4.44450
 Alpha virt. eigenvalues --    4.48301   4.49627   4.51222   4.53013   4.54059
 Alpha virt. eigenvalues --    4.55328   4.56763   4.57643   4.59975   4.62322
 Alpha virt. eigenvalues --    4.62362   4.63591   4.65034   4.66431   4.66811
 Alpha virt. eigenvalues --    4.70530   4.71820   4.73052   4.75696   4.76289
 Alpha virt. eigenvalues --    4.76855   4.79908   4.83131   4.83591   4.84770
 Alpha virt. eigenvalues --    4.85422   4.86888   4.88225   4.89628   4.91123
 Alpha virt. eigenvalues --    4.91913   4.94715   4.99544   5.01472   5.03241
 Alpha virt. eigenvalues --    5.05880   5.09141   5.09686   5.11865   5.14467
 Alpha virt. eigenvalues --    5.18115   5.20474   5.23371   5.29038   5.30707
 Alpha virt. eigenvalues --    5.33292   5.33903   5.37018   5.42778   5.48604
 Alpha virt. eigenvalues --    5.50531   5.53699   5.56600   5.61926   5.66986
 Alpha virt. eigenvalues --    5.70661   5.73996   6.04059  22.16403  22.35919
 Alpha virt. eigenvalues --   22.57754  22.62056  22.65709  22.68816  22.71336
 Alpha virt. eigenvalues --   22.72671  22.75149  22.76419  22.81057  22.83587
 Alpha virt. eigenvalues --   22.89047  22.92423  22.99488  23.07865  23.16197
 Alpha virt. eigenvalues --   23.22626  23.25634  23.40374  23.74947  23.91413
          Condensed to atoms (all electrons):
               1          2          3          4          5          6
     1  C    4.901159   0.507885  -0.055746  -0.046353  -0.038144   0.524129
     2  C    0.507885   5.018924   0.495714  -0.029651  -0.046074  -0.044669
     3  C   -0.055746   0.495714   5.007260   0.502808  -0.058775  -0.039952
     4  C   -0.046353  -0.029651   0.502808   5.021477   0.506467  -0.044160
     5  C   -0.038144  -0.046074  -0.058775   0.506467   4.900896   0.524739
     6  C    0.524129  -0.044669  -0.039952  -0.044160   0.524739   4.877010
     7  C    0.006340  -0.078037   0.252633  -0.076580   0.007037  -0.004592
     8  C    0.000990  -0.004223  -0.060652   0.007119  -0.000860   0.000200
     9  H   -0.000164   0.005288  -0.038839   0.393993  -0.020834   0.002564
    10  H    0.003581  -0.000010   0.004906  -0.031300   0.408225  -0.031414
    11  H   -0.035363   0.004371   0.000877   0.004450  -0.035208   0.410852
    12  H    0.000649   0.002101  -0.001543  -0.000247  -0.000144  -0.000029
    13  C   -0.000651   0.008842  -0.081492  -0.002528   0.001540   0.000042
    14  C    0.000107  -0.000843   0.007851   0.002254  -0.000012  -0.000033
    15  H   -0.000107   0.000298  -0.001476   0.003265   0.000738  -0.000078
    16  H   -0.000000   0.000039  -0.000295   0.000008  -0.000001   0.000000
    17  C   -0.000195   0.007726  -0.004570  -0.000283   0.000197  -0.000091
    18  C   -0.000043  -0.000495   0.006221  -0.000008  -0.000025   0.000011
    19  C    0.000000   0.000021  -0.001267   0.000043  -0.000000  -0.000000
    20  C   -0.000000  -0.000009   0.000536  -0.000012   0.000000   0.000000
    21  C   -0.000000   0.000000   0.000005   0.000000   0.000000  -0.000000
    22  C   -0.000000   0.000000  -0.000000  -0.000000  -0.000000   0.000000
    23  C    0.000000  -0.000000  -0.000000   0.000000   0.000000  -0.000000
    24  C   -0.000000   0.000001  -0.000021   0.000001   0.000000  -0.000000
    25  H   -0.000000  -0.000000   0.000000   0.000000   0.000000  -0.000000
    26  H    0.000000  -0.000000   0.000000   0.000000   0.000000  -0.000000
    27  H    0.000000   0.000000   0.000000   0.000000   0.000000  -0.000000
    28  H   -0.000000   0.000000   0.000001   0.000000  -0.000000   0.000000
    29  C    0.000015   0.000774  -0.004030   0.000045   0.000001  -0.000004
    30  C   -0.000002  -0.000008  -0.000087   0.000004   0.000001   0.000000
    31  C    0.000001   0.000011  -0.000005  -0.000001   0.000000  -0.000000
    32  C   -0.000010  -0.000262   0.000447   0.000006  -0.000001   0.000001
    33  H   -0.000001   0.000033   0.000098  -0.000009   0.000000  -0.000000
    34  H    0.000000   0.000000  -0.000003  -0.000000   0.000000  -0.000000
    35  H    0.000000   0.000001   0.000002   0.000000   0.000000  -0.000000
    36  H   -0.000000  -0.000000   0.000000  -0.000000  -0.000000   0.000000
    37  H   -0.000005  -0.000004   0.000078   0.000006  -0.000000   0.000001
    38  H   -0.000000   0.000000  -0.000006   0.000000   0.000000  -0.000000
    39  H    0.407719  -0.030869   0.004512  -0.000009   0.003473  -0.030828
    40  H   -0.022042   0.394671  -0.038681   0.004684  -0.000086   0.002408
               7          8          9         10         11         12
     1  C    0.006340   0.000990  -0.000164   0.003581  -0.035363   0.000649
     2  C   -0.078037  -0.004223   0.005288  -0.000010   0.004371   0.002101
     3  C    0.252633  -0.060652  -0.038839   0.004906   0.000877  -0.001543
     4  C   -0.076580   0.007119   0.393993  -0.031300   0.004450  -0.000247
     5  C    0.007037  -0.000860  -0.020834   0.408225  -0.035208  -0.000144
     6  C   -0.004592   0.000200   0.002564  -0.031414   0.410852  -0.000029
     7  C    4.937407   0.436061   0.007143   0.000034   0.000125   0.003659
     8  C    0.436061   5.555235   0.000150   0.000029  -0.000012   0.340400
     9  H    0.007143   0.000150   0.488755  -0.003529  -0.000292   0.000025
    10  H    0.000034   0.000029  -0.003529   0.509364  -0.004071   0.000001
    11  H    0.000125  -0.000012  -0.000292  -0.004071   0.517234   0.000000
    12  H    0.003659   0.340400   0.000025   0.000001   0.000000   0.461907
    13  C    0.516787  -0.022380   0.002292   0.000029  -0.000005   0.003083
    14  C   -0.023001  -0.130897   0.000848   0.000001  -0.000000   0.001779
    15  H   -0.036176   0.009882  -0.001952   0.000058  -0.000000  -0.000240
    16  H    0.001201  -0.000620   0.000043   0.000000  -0.000000   0.000077
    17  C   -0.028491   0.274420   0.000017   0.000002  -0.000000  -0.015996
    18  C   -0.045394   0.004364  -0.000098  -0.000000   0.000000  -0.004077
    19  C   -0.007154   0.032901   0.000010   0.000000   0.000000  -0.001161
    20  C   -0.000293   0.024541  -0.000001  -0.000000  -0.000000   0.000956
    21  C    0.000151  -0.001187  -0.000000   0.000000  -0.000000  -0.000008
    22  C   -0.000016  -0.000008  -0.000000  -0.000000   0.000000   0.000003
    23  C    0.000018   0.000087  -0.000000   0.000000  -0.000000  -0.000003
    24  C   -0.000154  -0.001627   0.000000   0.000000  -0.000000   0.000058
    25  H    0.000006  -0.000018  -0.000000   0.000000   0.000000  -0.000001
    26  H    0.000000  -0.000001   0.000000   0.000000  -0.000000  -0.000000
    27  H   -0.000000   0.000001   0.000000   0.000000   0.000000   0.000000
    28  H    0.000024  -0.000056   0.000000   0.000000   0.000000   0.000000
    29  C    0.019539  -0.157369   0.000011   0.000000  -0.000000   0.025905
    30  C    0.000493  -0.016814   0.000001  -0.000000  -0.000000  -0.004109
    31  C    0.000068   0.003260  -0.000000   0.000000   0.000000  -0.000101
    32  C   -0.000708  -0.013715  -0.000000  -0.000000   0.000000  -0.004062
    33  H   -0.000246  -0.000594  -0.000001   0.000000  -0.000000   0.002097
    34  H   -0.000050   0.000383  -0.000000   0.000000  -0.000000  -0.000028
    35  H   -0.000017   0.000026   0.000000  -0.000000   0.000000   0.000208
    36  H    0.000002  -0.000006  -0.000000  -0.000000   0.000000   0.000046
    37  H    0.000137  -0.000453   0.000000   0.000000  -0.000000   0.001394
    38  H   -0.000009   0.000215   0.000000  -0.000000  -0.000000  -0.000119
    39  H    0.000079   0.000024   0.000064  -0.000285  -0.004070   0.000037
    40  H    0.006430   0.002004  -0.000244   0.000064  -0.000294  -0.003158
              13         14         15         16         17         18
     1  C   -0.000651   0.000107  -0.000107  -0.000000  -0.000195  -0.000043
     2  C    0.008842  -0.000843   0.000298   0.000039   0.007726  -0.000495
     3  C   -0.081492   0.007851  -0.001476  -0.000295  -0.004570   0.006221
     4  C   -0.002528   0.002254   0.003265   0.000008  -0.000283  -0.000008
     5  C    0.001540  -0.000012   0.000738  -0.000001   0.000197  -0.000025
     6  C    0.000042  -0.000033  -0.000078   0.000000  -0.000091   0.000011
     7  C    0.516787  -0.023001  -0.036176   0.001201  -0.028491  -0.045394
     8  C   -0.022380  -0.130897   0.009882  -0.000620   0.274420   0.004364
     9  H    0.002292   0.000848  -0.001952   0.000043   0.000017  -0.000098
    10  H    0.000029   0.000001   0.000058   0.000000   0.000002  -0.000000
    11  H   -0.000005  -0.000000  -0.000000  -0.000000  -0.000000   0.000000
    12  H    0.003083   0.001779  -0.000240   0.000077  -0.015996  -0.004077
    13  C    5.003889   0.488522   0.395267  -0.020714  -0.046090  -0.059457
    14  C    0.488522   5.168999  -0.022937   0.385571  -0.034574   0.506479
    15  H    0.395267  -0.022937   0.492690  -0.002720  -0.000677   0.003771
    16  H   -0.020714   0.385571  -0.002720   0.508412   0.010689  -0.028213
    17  C   -0.046090  -0.034574  -0.000677   0.010689   5.447832   0.343138
    18  C   -0.059457   0.506479   0.003771  -0.028213   0.343138   5.093888
    19  C    0.006485  -0.131386   0.000248  -0.001521  -0.083569   0.306475
    20  C   -0.001047   0.021349   0.000040   0.002223  -0.110439  -0.069961
    21  C   -0.000005   0.000397  -0.000000  -0.000044   0.023971   0.025774
    22  C    0.000031  -0.000411  -0.000000   0.000017  -0.000628  -0.005208
    23  C   -0.000137   0.000686   0.000001  -0.000223  -0.000743   0.004261
    24  C    0.000650  -0.020872   0.000011   0.002119   0.030879  -0.137205
    25  H   -0.000005   0.000044   0.000000   0.000000   0.001579  -0.001019
    26  H   -0.000000  -0.000001  -0.000000  -0.000000  -0.000012   0.000145
    27  H    0.000000   0.000029   0.000000   0.000010   0.000009   0.000225
    28  H   -0.000175   0.002408   0.000011   0.003756   0.002066  -0.000512
    29  C   -0.001499   0.026011  -0.000047  -0.000769   0.181172  -0.093269
    30  C    0.000017   0.000198  -0.000000  -0.000007  -0.046382   0.016914
    31  C    0.000018  -0.000058  -0.000000  -0.000002   0.027518  -0.007555
    32  C   -0.000099   0.000108   0.000002  -0.000008  -0.036275   0.019133
    33  H    0.000010  -0.000155  -0.000001   0.000002  -0.006209   0.004502
    34  H    0.000001   0.000016   0.000000  -0.000001  -0.001357   0.000150
    35  H   -0.000002   0.000004  -0.000000   0.000000  -0.001565   0.000219
    36  H    0.000000  -0.000001  -0.000000   0.000000  -0.000399   0.000575
    37  H   -0.000086  -0.000046  -0.000002   0.000003  -0.007268   0.003874
    38  H   -0.000027   0.000074   0.000000   0.000000  -0.001851  -0.000040
    39  H    0.000031   0.000000   0.000002   0.000000   0.000008  -0.000001
    40  H    0.000250  -0.000122   0.000049   0.000002   0.002637  -0.000155
              19         20         21         22         23         24
     1  C    0.000000  -0.000000  -0.000000  -0.000000   0.000000  -0.000000
     2  C    0.000021  -0.000009   0.000000   0.000000  -0.000000   0.000001
     3  C   -0.001267   0.000536   0.000005  -0.000000  -0.000000  -0.000021
     4  C    0.000043  -0.000012   0.000000  -0.000000   0.000000   0.000001
     5  C   -0.000000   0.000000   0.000000  -0.000000   0.000000   0.000000
     6  C   -0.000000   0.000000  -0.000000   0.000000  -0.000000  -0.000000
     7  C   -0.007154  -0.000293   0.000151  -0.000016   0.000018  -0.000154
     8  C    0.032901   0.024541  -0.001187  -0.000008   0.000087  -0.001627
     9  H    0.000010  -0.000001  -0.000000  -0.000000  -0.000000   0.000000
    10  H    0.000000  -0.000000   0.000000  -0.000000   0.000000   0.000000
    11  H    0.000000  -0.000000  -0.000000   0.000000  -0.000000  -0.000000
    12  H   -0.001161   0.000956  -0.000008   0.000003  -0.000003   0.000058
    13  C    0.006485  -0.001047  -0.000005   0.000031  -0.000137   0.000650
    14  C   -0.131386   0.021349   0.000397  -0.000411   0.000686  -0.020872
    15  H    0.000248   0.000040  -0.000000  -0.000000   0.000001   0.000011
    16  H   -0.001521   0.002223  -0.000044   0.000017  -0.000223   0.002119
    17  C   -0.083569  -0.110439   0.023971  -0.000628  -0.000743   0.030879
    18  C    0.306475  -0.069961   0.025774  -0.005208   0.004261  -0.137205
    19  C    5.144702   0.373406  -0.059628  -0.036787  -0.064150   0.503488
    20  C    0.373406   5.246418   0.448131  -0.061605  -0.043441  -0.056054
    21  C   -0.059628   0.448131   5.156239   0.509097  -0.022353  -0.099472
    22  C   -0.036787  -0.061605   0.509097   4.874107   0.516484  -0.020057
    23  C   -0.064150  -0.043441  -0.022353   0.516484   4.885026   0.514337
    24  C    0.503488  -0.056054  -0.099472  -0.020057   0.514337   5.142600
    25  H   -0.002515  -0.051731   0.395561  -0.011293   0.001540   0.001898
    26  H    0.002284   0.004897  -0.033260   0.409217  -0.033920   0.003305
    27  H    0.006122   0.000644   0.004253  -0.033112   0.412211  -0.037470
    28  H   -0.032507   0.012384   0.000437   0.002361  -0.027646   0.390649
    29  C   -0.031694   0.244245  -0.092113   0.007398  -0.004022   0.025964
    30  C    0.015247  -0.007634  -0.019653   0.000405  -0.000073  -0.000845
    31  C   -0.001171  -0.008966   0.000624   0.000378  -0.000002   0.000265
    32  C    0.012088   0.000885  -0.019355   0.000428  -0.000084  -0.000965
    33  H   -0.002438   0.008538   0.000846   0.000015  -0.000002  -0.000020
    34  H    0.004232  -0.009248  -0.002014  -0.000194  -0.000072  -0.000030
    35  H    0.000078  -0.000745   0.000116   0.000002  -0.000001   0.000001
    36  H   -0.001750  -0.013287   0.003864   0.000371   0.000029  -0.000014
    37  H   -0.002327   0.008344   0.000838   0.000012  -0.000001  -0.000018
    38  H    0.004556  -0.009752  -0.002080  -0.000196  -0.000064  -0.000045
    39  H    0.000000  -0.000000   0.000000   0.000000  -0.000000   0.000000
    40  H    0.000014  -0.000006   0.000000  -0.000000  -0.000000   0.000000
              25         26         27         28         29         30
     1  C   -0.000000   0.000000   0.000000  -0.000000   0.000015  -0.000002
     2  C   -0.000000  -0.000000   0.000000   0.000000   0.000774  -0.000008
     3  C    0.000000   0.000000   0.000000   0.000001  -0.004030  -0.000087
     4  C    0.000000   0.000000   0.000000   0.000000   0.000045   0.000004
     5  C    0.000000   0.000000   0.000000  -0.000000   0.000001   0.000001
     6  C   -0.000000  -0.000000  -0.000000   0.000000  -0.000004   0.000000
     7  C    0.000006   0.000000  -0.000000   0.000024   0.019539   0.000493
     8  C   -0.000018  -0.000001   0.000001  -0.000056  -0.157369  -0.016814
     9  H   -0.000000   0.000000   0.000000   0.000000   0.000011   0.000001
    10  H    0.000000   0.000000   0.000000   0.000000   0.000000  -0.000000
    11  H    0.000000  -0.000000   0.000000   0.000000  -0.000000  -0.000000
    12  H   -0.000001  -0.000000   0.000000   0.000000   0.025905  -0.004109
    13  C   -0.000005  -0.000000   0.000000  -0.000175  -0.001499   0.000017
    14  C    0.000044  -0.000001   0.000029   0.002408   0.026011   0.000198
    15  H    0.000000  -0.000000   0.000000   0.000011  -0.000047  -0.000000
    16  H    0.000000  -0.000000   0.000010   0.003756  -0.000769  -0.000007
    17  C    0.001579  -0.000012   0.000009   0.002066   0.181172  -0.046382
    18  C   -0.001019   0.000145   0.000225  -0.000512  -0.093269   0.016914
    19  C   -0.002515   0.002284   0.006122  -0.032507  -0.031694   0.015247
    20  C   -0.051731   0.004897   0.000644   0.012384   0.244245  -0.007634
    21  C    0.395561  -0.033260   0.004253   0.000437  -0.092113  -0.019653
    22  C   -0.011293   0.409217  -0.033112   0.002361   0.007398   0.000405
[...]
 00002352,-0.00001325,-0.00016813,0.00002423,0.00004437,-0.00002641,0.0
 0005802,-0.00000344,-0.00000687,-0.00109522,-0.00007244,-0.00032680,-0
 .00000112,-0.00000126,0.00000555,0.00001368,0.00001562,-0.00001518,0.0
 0000625,-0.00000459,-0.00000510,0.00016007,-0.00062581,-0.00040515,-0.
 00558107,-0.00249348,-0.01450663,-0.00633194,-0.04505724,-0.00723339,0
 .01284820,0.00094105,0.02970639,0.00264154,-0.00025163,-0.00198630,-0.
 00067569,0.00087107,0.00094942,-0.00514684,0.00007492,-0.01612905,0.00
 459042,0.04922396,0.00001184,0.00001822,-0.00000568,-0.00001427,0.0000
 0690,0.00000458,0.00001603,0.00000678,0.00000790,-0.00000953,-0.000002
 03,-0.00000180,-0.00000475,0.00000411,-0.00000366,0.00000085,-0.000014
 32,-0.00000519,-0.00000788,-0.00000907,0.00015950,-0.00008055,-0.00001
 675,-0.00004501,0.00000210,0.00000162,0.00000382,0.00000057,-0.0000033
 2,-0.00000428,-0.00000078,0.00000299,-0.00000314,0.00007828,0.00000747
 ,0.00007546,0.00009715,0.00005028,-0.00002484,0.00004535,0.00003279,-0
 .00004854,0.00001222,0.00000707,0.00000226,0.00001472,0.00001261,-0.00
 002682,0.00033080,0.00021091,0.00025827,-0.00005865,-0.00001707,-0.000
 05142,0.00014316,0.00010173,-0.00010922,-0.00001232,0.00014402,-0.0004
 2700,-0.00023503,-0.00002763,-0.00111256,-0.00007290,-0.00014045,0.000
 53236,-0.00009982,-0.00005675,-0.00000260,-0.00006503,-0.00004650,0.00
 002529,-0.00033656,-0.00031663,0.00089474,0.00002131,0.00000923,-0.000
 00195,-0.00003544,-0.00002907,0.00004635,0.00000342,-0.00000312,0.0000
 0793,0.00018483,0.00004416,-0.00036254,-0.00641835,-0.00170293,-0.0160
 5215,-0.08747439,-0.00684740,-0.28951077,-0.00328580,-0.00043144,-0.00
 745814,0.00283944,0.00074526,-0.00132151,-0.00047621,-0.00028124,0.001
 56886,-0.00048854,-0.00027152,0.00010958,0.09419176,0.00788803,0.31186
 582,0.00003254,0.00003809,-0.00001760,-0.00003991,0.00001101,0.0000397
 7,0.00001717,-0.00002060,0.00000476,-0.00001436,-0.00000627,0.00000463
 ,-0.00000076,0.00000554,-0.00001219,0.00000450,-0.00003462,-0.00000341
 ,0.00010547,-0.00018756,0.00060146,0.00010764,-0.00021366,-0.00002469,
 0.00000497,0.00000638,-0.00000133,0.00000026,-0.00000458,-0.00000678,-
 0.00000069,0.00000926,-0.00000878,0.00010681,0.00042005,0.00048818,0.0
 0034781,0.00020367,0.00002434,0.00005319,0.00018364,-0.00026206,0.0000
 2595,0.00005857,0.00002054,-0.00000590,0.00004436,-0.00002957,0.002077
 02,-0.00021388,-0.00243224,-0.00074168,-0.00039423,-0.00039663,-0.0005
 2633,-0.00028426,-0.00068637,-0.00230808,0.00324594,0.00328215,-0.0004
 0513,-0.00036985,-0.00014510,0.00041997,0.00004296,0.00004795,-0.00032
 680,-0.00019268,0.00020857,-0.00005927,-0.00039728,-0.00001681,-0.0000
 7886,0.00008075,-0.00003765,-0.00004866,-0.00001140,-0.00004337,-0.000
 00999,0.00001584,0.00001347,-0.00010407,-0.00009067,-0.00003061,-0.022
 35412,0.00003609,-0.01757522,0.00025059,-0.00056028,0.00052616,0.00491
 158,-0.00052890,0.00514447,-0.18162757,0.01589533,-0.13802514,0.000014
 23,0.00050670,-0.00002518,0.00002627,0.00015339,0.00016960,0.00086990,
 0.00061603,-0.00013954,0.00054648,-0.00136659,0.00136798,0.19691829,0.
 00000389,-0.00000205,-0.00000982,-0.00001035,-0.00002959,0.00003362,-0
 .00000604,0.00000319,-0.00001315,0.00000511,-0.00000056,0.00000061,0.0
 0000056,0.00000192,0.00000125,-0.00000242,-0.00000770,0.00000201,-0.00
 014311,-0.00015398,0.00000964,0.00042994,0.00020970,0.00025776,0.00000
 038,0.00000356,-0.00000185,0.00000027,-0.00000035,0.00000047,0.0000007
 6,0.00000503,-0.00000091,-0.00007121,-0.00008044,-0.00023275,0.0000456
 0,0.00000503,0.00008420,0.00006054,-0.00000022,-0.00002545,-0.00001467
 ,-0.00000670,0.00000582,0.00000216,0.00000301,-0.00001983,-0.00007713,
 0.00088771,0.00011477,-0.00000914,-0.00003406,-0.00012822,-0.00008046,
 0.00018456,-0.00026359,-0.00104838,-0.00046025,0.00026047,-0.00013926,
 0.00007832,0.00031771,0.00013698,0.00019272,0.00004768,-0.00006417,-0.
 00007553,0.00010011,-0.00004884,-0.00007677,-0.00005895,0.00007944,-0.
 00015777,-0.00004470,-0.00000176,-0.00000606,-0.00000761,0.00000640,-0
 .00001235,-0.00000062,-0.00001771,-0.00001425,-0.00000037,0.00047738,-
 0.00071780,0.00068335,-0.00118993,-0.00027312,-0.00017542,0.01969802,-
 0.00223694,0.02098179,0.01622654,-0.04940075,0.01057080,0.00039246,-0.
 00038407,-0.00033194,-0.00012304,-0.00004224,-0.00035666,-0.00069032,0
 .00245090,-0.00007372,0.00137816,-0.00481385,0.00103876,-0.01636666,0.
 05124745,-0.00001538,0.00004168,0.00000191,0.00001942,-0.00002663,0.00
 002070,-0.00001496,-0.00003377,-0.00004107,0.00001605,0.00000407,0.000
 01495,0.00000066,0.00001111,-0.00000703,0.00002401,-0.00002698,0.00002
 232,0.00001670,0.00011856,-0.00020584,0.00029045,0.00013792,0.00051572
 ,0.00000418,-0.00000288,-0.00000660,0.00000116,-0.00000254,0.00000394,
 0.00000142,0.00001252,0.00000395,-0.00002502,-0.00028057,-0.00023720,-
 0.00007582,-0.00012214,-0.00002403,-0.00002674,-0.00007472,0.00010585,
 -0.00002373,-0.00000208,0.00000468,-0.00003093,0.00002657,0.00002326,0
 .00012323,0.00045260,0.00074875,0.00011718,-0.00026947,0.00017017,0.00
 055355,0.00060453,0.00030878,0.00184924,-0.00147728,-0.00115146,0.0001
 6509,0.00019914,-0.00001816,-0.00000130,0.00024255,0.00008794,0.000092
 86,-0.00002116,0.00018729,-0.00025655,0.00010260,-0.00017221,0.0001724
 0,-0.00012351,0.00013422,0.00002864,0.00000472,0.00001107,-0.00000183,
 -0.00002726,0.00000466,0.00005733,0.00000167,0.00000635,0.01254829,-0.
 00058946,0.01044493,-0.00015248,0.00037662,-0.00050880,-0.01028598,0.0
 0067236,-0.01230885,-0.13818887,0.01057754,-0.18018900,-0.00018723,-0.
 00012177,0.00021781,-0.00018794,0.00016526,0.00007936,0.00043352,-0.00
 075152,0.00125065,-0.00006901,0.00326039,-0.00010597,0.14656672,-0.015
 45891,0.19272686,0.00001212,0.00000667,-0.00000319,-0.00000932,0.00001
 931,0.00002082,-0.00003069,-0.00002192,-0.00000692,0.00000423,0.000005
 28,0.00000851,0.00000358,0.00000383,-0.00000492,0.00000515,-0.00000345
 ,0.00000428,0.00010347,-0.00000453,-0.00003894,-0.00007383,-0.00042913
 ,0.00020481,0.00000255,-0.00000659,-0.00001009,0.00000075,-0.00000024,
 0.00000184,0.00000101,0.00000014,-0.00000178,0.00008033,0.00017136,0.0
 0010883,-0.00006735,-0.00000608,0.00020113,0.00002218,-0.00010041,-0.0
 0018730,0.00001810,-0.00000462,-0.00001448,-0.00003302,-0.00001327,0.0
 0005705,-0.00133729,0.00197675,-0.00136887,-0.00009035,-0.00051672,0.0
 0062003,-0.00017678,-0.00020834,0.00058758,0.00290928,0.00079713,0.000
 82435,0.00037709,-0.00022799,0.00008124,-0.00036693,-0.00029048,-0.000
 23603,0.00011313,0.00015715,-0.00029871,0.00017640,0.00021105,0.000179
 51,0.00002717,0.00025376,-0.00024027,-0.00001637,0.00000603,0.00000791
 ,0.00000911,0.00001719,-0.00002448,0.00002563,0.00000694,0.00000248,-0
 .00086158,0.01779228,0.01623949,-0.00198422,0.00261813,-0.00039145,-0.
 00270638,0.00013307,-0.00317326,-0.04658199,0.00103235,0.00258135,-0.0
 0004218,0.00019175,0.00013748,0.00013049,0.00113037,-0.00007415,-0.000
 01474,-0.00091861,0.00039569,0.00094385,0.00061157,-0.00019691,0.00177
 124,-0.01884473,-0.01351640,0.04765542,-0.00000761,-0.00005568,0.00001
 179,0.00000974,0.00002223,-0.00002628,0.00001030,0.00000142,0.00000428
 ,-0.00000164,0.00001459,0.00000569,-0.00000610,-0.00001922,-0.00000126
 ,-0.00000811,0.00004969,-0.00001075,-0.00003930,-0.00005174,0.00007923
 ,-0.00002893,0.00000687,-0.00010354,0.00000051,-0.00000423,0.00000408,
 -0.00000056,0.00000263,0.00000044,0.00000101,-0.00001714,0.00000405,0.
 00002646,-0.00002761,-0.00003717,0.00008913,0.00008623,0.00003255,-0.0
 0000863,-0.00003437,-0.00016906,0.00000541,-0.00000583,0.00000108,-0.0
 0000232,0.00001271,-0.00000232,-0.00032087,-0.00019312,0.00046339,0.00
 011936,-0.00015632,0.00025335,0.00030108,0.00030166,-0.00019863,-0.000
 84994,0.00077986,-0.00032006,0.00012544,0.00019388,0.00012083,0.000133
 03,-0.00001719,0.00009045,-0.00002681,-0.00000894,0.00009134,-0.000009
 65,-0.00009493,-0.00008139,0.00019914,-0.00021230,0.00009895,0.0000062
 1,0.00001519,0.00000722,-0.00000818,-0.00000787,0.00001019,0.00002359,
 -0.00000768,0.00000558,0.00138003,-0.00107393,0.00124629,0.00289700,-0
 .00321328,0.00138153,-0.00068943,-0.01361857,-0.01574447,0.00145689,-0
 .22121273,-0.13236284,-0.00007727,-0.00001435,-0.00026203,0.00064605,-
 0.00056250,-0.00090549,0.00086396,-0.00228498,0.00030552,-0.00037691,0
 .00221064,-0.00009909,-0.00031317,0.00366135,0.00238663,-0.00552181,0.
 23552898,0.00000592,-0.00003882,0.00000432,-0.00001138,0.00003469,-0.0
 0002710,0.00004660,0.00000340,0.00001394,-0.00001871,0.00000257,-0.000
 01124,-0.00000318,-0.00001626,-0.00000321,-0.00001372,0.00003161,-0.00
 002077,-0.00005178,-0.00018348,0.00030687,-0.00005842,0.00012325,-0.00
 050286,-0.00000046,0.00000212,0.00000852,-0.00000098,0.00000137,-0.000
 00563,-0.00000131,-0.00001371,-0.00000249,-0.00000006,0.00013580,0.000
 19009,0.00025852,0.00017323,-0.00004807,0.00001676,0.00014195,-0.00022
 565,0.00000896,0.00002784,-0.00000192,0.00002084,0.00002789,-0.0000403
 5,0.00118801,-0.00082006,0.00031740,-0.00008786,0.00005900,-0.00017521
 ,-0.00000114,0.00034863,-0.00033458,-0.00191649,-0.00004696,0.00083444
 ,0.00024684,-0.00001420,0.00057696,0.00012199,-0.00006885,0.00005014,-
 0.00002557,0.00002886,0.00006363,0.00003411,-0.00006582,-0.00001508,0.
 00018649,0.00009513,-0.00010046,0.00000217,0.00002437,0.00001203,0.000
 00824,0.00000908,0.00000069,0.00002463,-0.00004553,-0.00001809,-0.0028
 9945,-0.00751902,-0.00760502,0.00063688,0.00122567,0.00012965,0.000954
 65,0.01174634,0.01223002,0.00302943,-0.13217450,-0.15200279,-0.0002453
 7,0.00025309,0.00011048,-0.00059940,-0.00019496,0.00061483,-0.00005615
 ,0.00170937,-0.00029139,0.00031366,-0.00140132,0.00111668,0.00136585,-
 0.01730113,-0.01215236,-0.00249250,0.14372097,0.15698945,-0.34196019,0
 .01344830,0.01673169,-0.01304937,0.00141657,0.00355738,0.00045883,-0.0
 0052772,-0.00325816,0.00077596,-0.00010305,-0.00019114,0.00089077,0.00
 096660,0.00278016,-0.00943877,-0.00010073,-0.00180340,-0.00055282,0.00
 008038,0.00055760,-0.00006035,-0.00007228,-0.00002415,-0.00008785,-0.0
 0003338,0.00001628,-0.00056976,-0.00003450,-0.00015385,0.00069730,-0.0
 0007746,0.00030515,-0.00000295,0.00002408,0.00001568,-0.00006078,-0.00
 000244,-0.00026887,-0.00003790,-0.00003482,0.00000751,-0.00000315,0.00
 002195,0.00001789,-0.00002045,-0.00001394,-0.00002560,-0.00000314,-0.0
 0002385,-0.00001511,-0.00000871,0.00001655,0.00000557,0.00002342,-0.00
 003056,0.00002350,-0.00003194,0.00003191,-0.00006697,0.00004099,-0.000
 07098,0.00001753,-0.00005316,0.00003520,-0.00000947,0.00001823,-0.0000
 0265,-0.00002988,0.00000234,0.00002379,0.00000010,-0.00001072,0.000025
 01,-0.00000040,0.00000362,-0.00000928,-0.00000767,-0.00000156,-0.00000
 186,-0.00000378,0.00000493,-0.00000336,0.00000484,0.00000630,-0.000001
 18,0.00002887,-0.00000779,-0.00001099,-0.00001112,-0.00000702,-0.00000
 166,-0.00000023,-0.00001267,-0.00000578,-0.00000856,-0.00000243,-0.000
 00408,0.00001068,-0.00000228,0.00000389,-0.00000653,0.00000977,0.00000
 585,-0.00000559,-0.00000043,-0.00000048,-0.00000115,-0.00000452,-0.000
 00008,0.00001069,0.00000094,0.00000339,-0.00000448,0.36225005,0.013580
 64,-0.04003595,-0.00640729,-0.00587123,0.00359446,0.00055607,-0.000689
 40,0.00709506,-0.00277737,-0.00013114,-0.00081860,-0.00037257,0.001015
 30,0.00671898,-0.00273099,0.00696419,0.00314579,0.00047698,-0.00026467
 ,0.00012587,0.00013347,0.00003070,-0.00009851,0.00007276,-0.00004994,-
 0.00110411,0.00031406,0.00035305,0.00009126,-0.00002028,-0.00025756,-0
 .00365539,0.00114597,0.00006707,0.00002611,0.00004218,0.00006641,-0.00
 006083,-0.00006513,-0.00001678,0.00000158,0.00007765,0.00000276,-0.000
 02198,0.00002300,-0.00000617,0.00000345,-0.00000677,-0.00000528,0.0000
 3395,0.00000418,-0.00000016,-0.00000846,-0.00002357,-0.00000312,-0.000
 02241,0.00000696,-0.00000100,0.00001522,-0.00002946,0.00000482,-0.0000
 0380,0.00002365,-0.00000383,-0.00001059,0.00001539,0.00000815,0.000005
 35,-0.00000505,0.00000794,0.00000153,-0.00000131,0.00000449,0.00000564
 ,-0.00000133,-0.00000528,0.00000284,-0.00001075,-0.00000600,0.00000085
 ,-0.00000035,-0.00000221,0.00000293,0.00000077,0.00000469,-0.00000869,
 -0.00000754,0.00001422,-0.00001367,-0.00000056,0.00000255,0.00000289,0
 .00000663,0.00000545,-0.00000993,0.00000088,0.00000894,0.00000724,0.00
 000955,-0.00002045,0.00000863,-0.00001241,0.00000341,0.00000129,0.0000
 0310,-0.00000383,-0.00000500,-0.00000600,-0.00001028,0.00000321,-0.000
 00973,-0.00000350,0.00001322,0.00000752,-0.01474958,0.02881029,0.01683
 582,-0.00599432,-0.05927215,-0.02649036,0.00158798,0.00597621,-0.00283
 295,-0.00256303,-0.00338444,-0.00013574,-0.00017166,-0.00142884,0.0021
 2421,-0.00294014,-0.00422677,0.02833390,-0.00075815,0.00345204,-0.0010
 1298,0.00004524,0.00061171,-0.00000553,-0.00003855,-0.00000605,0.00000
 201,0.00030296,0.00005343,0.00141928,-0.00004478,-0.00000801,-0.000577
 19,0.00116031,0.00067498,-0.00001708,0.00003710,-0.00001870,-0.0001556
 7,-0.00000683,-0.00034800,-0.00003659,-0.00010206,0.00001591,-0.000009
 32,0.00001389,0.00001179,-0.00002276,-0.00000912,-0.00002673,0.0000109
 0,-0.00002083,-0.00001818,0.00000193,0.00001318,-0.00000502,0.00000623
 ,0.00001215,0.00002372,-0.00000577,-0.00001230,-0.00003122,-0.00000357
 ,0.00001499,0.00001062,-0.00000815,-0.00001337,-0.00001918,0.00000310,
 0.00000787,-0.00000698,0.00000406,-0.00000115,-0.00000417,0.00000112,-
 0.00000422,-0.00000463,-0.00000005,0.00000079,0.00000309,-0.00000025,-
 0.00000020,-0.00000187,0.00000313,0.00000095,0.00000167,-0.00000131,0.
 00000343,0.00000421,-0.00000917,-0.00000104,-0.00000111,-0.00000256,-0
 .00000025,-0.00000112,-0.00002334,0.00000167,-0.00001216,-0.00000529,-
 0.00000255,0.00000056,0.00000937,-0.00000092,0.00000201,0.00000363,0.0
 0000622,-0.00000590,0.00000378,-0.00000030,0.00000242,0.00000329,-0.00
 000033,0.00001167,0.00000466,-0.00000674,-0.00000628,-0.01798502,0.008
 30463,0.05738505,0.01176188,-0.00456661,-0.01616349,-0.11555917,0.0314
 6990,0.10836011,-0.00908665,0.00771410,0.02745075,-0.00594356,0.000193
 81,-0.00067298,-0.00103356,-0.00019450,-0.00086382,-0.00114307,-0.0004
 8288,-0.00343496,0.00144890,0.00013522,0.00146847,-0.00026052,-0.00028
 996,-0.00000604,-0.00057295,0.00037109,0.00150747,0.00009774,-0.000014
 08,0.00009149,0.00038930,-0.00020200,-0.00084315,-0.00030358,0.0007948
 6,-0.00067492,-0.00037625,-0.00034088,-0.00024045,0.00015033,0.0000473
 1,0.00036636,0.00006593,0.00010489,-0.00001050,-0.00000276,0.00001193,
 0.00000023,-0.00004215,-0.00016298,-0.00059183,0.00022542,0.00021266,-
 0.00018687,0.00001629,0.00005687,-0.00005347,-0.00001229,-0.00002652,0
 .00003771,0.00000608,0.00002299,-0.00000999,0.00001614,-0.00000278,0.0
 0001448,0.00000306,-0.00000115,0.00000952,-0.00000356,-0.00001376,0.00
 002917,-0.00000277,-0.00000702,0.00000212,0.00000348,0.00000220,0.0000
 0814,0.00000604,0.00000291,0.00000647,-0.00000474,0.00000231,-0.000006
 17,-0.00006920,-0.00001095,-0.00003671,0.00000541,0.00001759,-0.000000
 04,0.00001152,0.00000854,0.00001103,-0.00000485,0.00000183,0.00000601,
 0.00000196,0.00002470,-0.00000881,0.00000835,-0.00001085,0.00001853,-0
 .00001424,-0.00001404,0.00000427,0.00000150,-0.00000600,0.00001302,0.0
 0004478,0.00000480,-0.00003261,-0.00000021,-0.00000050,0.00001783,0.00
 080723,-0.00004336,0.00057019,0.11936475,0.00325331,0.00217685,-0.0041
 6167,0.03269861,-0.05688423,-0.06616578,-0.00091831,0.00347642,-0.0023
 0012,0.00027568,0.00606877,-0.00081437,-0.00039900,-0.00062529,0.00006
 748,-0.00042145,0.00701415,-0.00237856,0.00029033,-0.00314457,0.001905
 47,0.00101670,0.00049165,-0.00002106,-0.00005047,0.00025311,-0.0000879
 9,-0.00001317,-0.00111162,0.00027626,0.00016803,0.00005376,-0.00021788
 ,0.00032040,-0.00021332,0.00076877,-0.00076570,-0.00018526,-0.00038790
 ,-0.00011123,-0.00002092,0.00050698,-0.00003087,-0.00006707,-0.0000165
 0,0.00000019,-0.00002814,-0.00001403,-0.00057986,-0.00043436,-0.000087
 03,0.00027646,0.00019751,-0.00027828,-0.00005140,0.00000562,0.00000786
 ,0.00004956,0.00002062,0.00002878,0.00000037,-0.00002580,-0.00002326,0
 .00000680,0.00001372,0.00000878,-0.00001141,-0.00002032,0.00000197,-0.
 00000925,-0.00000139,-0.00000687,-0.00000132,0.00000481,0.00000808,-0.
 00000195,0.00000106,-0.00000060,-0.00000089,-0.00000016,-0.00000092,-0
 .00000576,0.00000170,0.00000259,-0.00000789,-0.00000669,0.00005534,0.0
 0001557,0.00003162,0.00003066,0.00001337,0.00001124,-0.00000452,0.0000
 2695,-0.00001210,0.00000794,0.00000830,-0.00003126,-0.00001267,-0.0000
 0495,-0.00001038,-0.00001258,-0.00000821,-0.00001066,0.00001846,-0.000
 00524,-0.00000556,-0.00001062,-0.00000618,0.00004974,0.00002334,-0.000
 01966,-0.00000665,-0.00002913,-0.00018681,-0.00383973,0.00117948,-0.03
 480965,0.04681317,0.01355649,-0.00564995,-0.01716672,0.10910281,-0.065
 61234,-0.26484306,0.00024375,-0.00067551,0.00108472,-0.00013213,-0.001
 08708,0.00186896,-0.00062573,0.00024418,0.00034824,-0.00418920,-0.0023
 6961,-0.00191844,-0.00085285,0.00083658,-0.00057221,-0.00072559,0.0003
 8406,-0.00046347,-0.00008318,0.00000046,0.00004161,0.00007308,0.000261
 09,-0.00012256,0.00067209,-0.00029701,-0.00090882,-0.00105091,0.000332
 23,-0.00053463,0.00048762,0.00027380,0.00035981,-0.00000581,0.00004637
 ,-0.00027074,-0.00001646,0.00001544,0.00000231,0.00003126,-0.00001512,
 0.00001528,-0.00001281,0.00005619,0.00017729,-0.00010043,-0.00017308,0
 .00008346,0.00000393,-0.00004375,-0.00002467,-0.00001969,0.00000725,0.
 00000385,0.00001723,-0.00002966,-0.00000021,-0.00000874,0.00002379,0.0
 0001748,0.00000361,-0.00000224,-0.00000092,0.00000063,0.00001217,0.000
 00130,-0.00000610,0.00001195,0.00000099,0.00000282,-0.00000497,-0.0000
 0542,0.00000088,-0.00000006,0.00000072,0.00000164,-0.00000397,-0.00000
 176,-0.00001379,0.00007060,0.00001987,0.00000219,-0.00000544,-0.000014
 93,0.00000866,0.00001207,0.00001870,-0.00005127,-0.00001043,-0.0000297
 5,0.00000600,0.00000533,0.00000941,-0.00000739,0.00000228,-0.00000564,
 -0.00000049,-0.00000226,-0.00000254,0.00000250,-0.00001137,0.00000297,
 0.00004035,-0.00000486,0.00002082,0.00001160,0.00000570,0.00002042,-0.
 00020998,0.00126306,0.00059642,-0.11615658,0.07213411,0.28219187\\-0.0
 0001888,-0.00000262,-0.00000947,0.00001054,0.00000840,0.00001389,-0.00
 000683,-0.00001049,-0.00000202,0.00000800,0.00000383,0.00002380,-0.000
 00351,-0.00000430,-0.00002131,0.00001364,0.00000364,0.00001616,0.00001
 737,0.00001896,-0.00002997,0.00001123,-0.00000131,0.00000822,-0.000001
 31,0.00000312,-0.00000180,-0.00000318,0.00000206,0.00000449,0.00000094
 ,-0.00000004,-0.00000318,0.00000105,0.00000389,-0.00000475,-0.00002895
 ,-0.00000777,-0.00002258,0.00000125,-0.00000634,0.00004812,0.00000789,
 0.,0.00000633,-0.00000362,-0.00000058,-0.00000177,-0.00001454,-0.00001
 820,0.00003974,0.00003353,0.00002909,-0.00002909,0.00000571,0.00000832
 ,-0.00002327,-0.00000558,-0.00001315,0.00005577,0.00000409,0.00000667,
 -0.00002423,0.00000169,0.00000102,0.00000668,0.00001389,0.00000619,0.0
 0001895,-0.00002624,-0.00000963,-0.00002568,0.00000621,0.00000296,0.00
 000359,-0.00000612,-0.00000224,-0.00000386,-0.00000430,0.00000036,-0.0
 0000428,0.00000056,0.00000101,0.00000757,-0.00000233,0.00000415,-0.000
 05751,-0.00005882,-0.00002988,0.00001044,0.00009153,0.00005589,-0.0000
 0974,-0.00005693,-0.00003819,0.00000818,0.00000356,0.00000614,0.000004
 05,0.00001352,0.00000752,0.00000611,-0.00001533,-0.00000862,-0.0000137
 9,-0.00002034,-0.00001435,0.00000207,0.00000766,-0.00000350,0.00000347
 ,0.00001407,0.00000429,0.00000677,0.00000758,-0.00000155,-0.00000259,0
 .00000131,-0.00000472,-0.00000351\\\@
 The archive entry for this job was punched.


    THE DOUGHNUT CREED
 AS YOU RAMBLE ON THROUGH LIFE, BROTHER
 WHATEVER BE YOUR GOAL
 KEEP YOUR EYE UPON THE DOUGHNUT
 AND NOT UPON THE HOLE.
 Job cpu time:       4 days  9 hours 44 minutes 19.2 seconds.
 Elapsed time:       0 days  3 hours 23 minutes 51.4 seconds.
 File lengths (MBytes):  RWF=   3196 Int=      0 D2E=      0 Chk=     51 Scr=      1
 Normal termination of Gaussian 16 at Tue Nov 28 11:24:42 2023.
