 Entering Gaussian System, Link 0=g16
 Input=ph_fluorene_cp_nbutyl_63_1_m062x.com
 Output=ph_fluorene_cp_nbutyl_63_1_m062x.log
 Initial command:
 /arc/software/Gaussian/g16.c01/l1.exe "/tmp/Gau-250409.inp" -scrdir="/tmp/"
 Entering Link 1 = /arc/software/Gaussian/g16.c01/l1.exe PID=    250410.
  
 Copyright (c) 1988-2019, Gaussian, Inc.  All Rights Reserved.
  
 This is part of the Gaussian(R) 16 program.  It is based on
 the Gaussian(R) 09 system (copyright 2009, Gaussian, Inc.),
 the Gaussian(R) 03 system (copyright 2003, Gaussian, Inc.),
 the Gaussian(R) 98 system (copyright 1998, Gaussian, Inc.),
 the Gaussian(R) 94 system (copyright 1995, Gaussian, Inc.),
 the Gaussian 92(TM) system (copyright 1992, Gaussian, Inc.),
 the Gaussian 90(TM) system (copyright 1990, Gaussian, Inc.),
 the Gaussian 88(TM) system (copyright 1988, Gaussian, Inc.),
 the Gaussian 86(TM) system (copyright 1986, Carnegie Mellon
 University), and the Gaussian 82(TM) system (copyright 1983,
 Carnegie Mellon University). Gaussian is a federally registered
 trademark of Gaussian, Inc.
  
 This software contains proprietary and confidential information,
 including trade secrets, belonging to Gaussian, Inc.
  
 This software is provided under written license and may be
 used, copied, transmitted, or stored only in accord with that
 written license.
  
 The following legend is applicable only to US Government
 contracts under FAR:
  
                    RESTRICTED RIGHTS LEGEND
  
 Use, reproduction and disclosure by the US Government is
 subject to restrictions as set forth in subparagraphs (a)
 and (c) of the Commercial Computer Software - Restricted
 Rights clause in FAR 52.227-19.
  
 Gaussian, Inc.
 340 Quinnipiac St., Bldg. 40, Wallingford CT 06492
  
  
 ---------------------------------------------------------------
 Warning -- This program may not be used in any manner that
 competes with the business of Gaussian, Inc. or will provide
 assistance to any competitor of Gaussian, Inc.  The licensee
 of this program is prohibited from giving any competitor of
 Gaussian, Inc. access to this program.  By using this program,
 the user acknowledges that Gaussian, Inc. is engaged in the
 business of creating and licensing software in the field of
 computational chemistry and represents and warrants to the
 licensee that it is not a competitor of Gaussian, Inc. and that
 it will not use this program in any manner prohibited above.
 ---------------------------------------------------------------
  

 Cite this work as:
 Gaussian 16, Revision C.01,
 M. J. Frisch, G. W. Trucks, H. B. Schlegel, G. E. Scuseria, 
 M. A. Robb, J. R. Cheeseman, G. Scalmani, V. Barone, 
 G. A. Petersson, H. Nakatsuji, X. Li, M. Caricato, A. V. Marenich, 
 J. Bloino, B. G. Janesko, R. Gomperts, B. Mennucci, H. P. Hratchian, 
 J. V. Ortiz, A. F. Izmaylov, J. L. Sonnenberg, D. Williams-Young, 
 F. Ding, F. Lipparini, F. Egidi, J. Goings, B. Peng, A. Petrone, 
 T. Henderson, D. Ranasinghe, V. G. Zakrzewski, J. Gao, N. Rega, 
 G. Zheng, W. Liang, M. Hada, M. Ehara, K. Toyota, R. Fukuda, 
 J. Hasegawa, M. Ishida, T. Nakajima, Y. Honda, O. Kitao, H. Nakai, 
 T. Vreven, K. Throssell, J. A. Montgomery, Jr., J. E. Peralta, 
 F. Ogliaro, M. J. Bearpark, J. J. Heyd, E. N. Brothers, K. N. Kudin, 
 V. N. Staroverov, T. A. Keith, R. Kobayashi, J. Normand, 
 K. Raghavachari, A. P. Rendell, J. C. Burant, S. S. Iyengar, 
 J. Tomasi, M. Cossi, J. M. Millam, M. Klene, C. Adamo, R. Cammi, 
 J. W. Ochterski, R. L. Martin, K. Morokuma, O. Farkas, 
 J. B. Foresman, and D. J. Fox, Gaussian, Inc., Wallingford CT, 2019.
 
 ******************************************
 Gaussian 16:  ES64L-G16RevC.01  3-Jul-2019
                 2-Nov-2023 
 ******************************************
 %nprocshared=32
 Will use up to   32 processors via shared memory.
 %mem=8000MB
 %chk=ph_fluorene_cp_nbutyl_63_1_m062x.chk
 -----------------------------------------
 # opt freq=noraman m062x def2tzvp pop=nbo
 -----------------------------------------
 1/18=20,19=15,26=3,38=1/1,3;
 2/9=110,12=2,17=6,18=5,40=1/2;
 3/5=44,7=101,11=2,25=1,30=1,71=1,74=-55/1,2,3;
 4//1;
 5/5=2,38=5/2;
 6/7=2,8=2,9=2,10=2,28=1,40=1/1,7;
 7//1,2,3,16;
 1/18=20,19=15,26=3/3(2);
 2/9=110/2;
 99//99;
 2/9=110/2;
 3/5=44,7=101,11=2,25=1,30=1,71=1,74=-55/1,2,3;
 4/5=5,16=3,69=1/1;
 5/5=2,38=5/2;
 7//1,2,3,16;
 1/18=20,19=15,26=3/3(-5);
 2/9=110/2;
 6/7=2,8=2,9=2,10=2,19=2,28=1,40=1/1,7;
 99/9=1/99;
 ------------
 Structure697
 ------------
 Symbolic Z-matrix:
 Charge =  0 Multiplicity = 1
 C                     1.609    -4.4958    4.5081 
 C                    -1.9904   -5.3814    3.5978 
 C                    -0.7565   -4.7307    3.6371 
 C                     0.2642   -5.2042    4.4673 
 C                     0.0423   -6.338     5.2556 
 H                    -2.7709   -5.005     2.9542 
 H                    -0.5955   -3.8587    3.0204 
 H                     0.8302   -6.7068    5.8951 
 C                    -2.2021   -6.511     4.3897 
 C                    -1.1913   -6.9961    5.2173 
 C                    -3.0733   -8.3741    5.4634 
 C                    -3.38     -7.3735    4.5457 
 C                    -4.6392   -7.3232    3.9503 
 C                    -5.5964   -8.2844    4.277 
 C                    -5.3129   -9.306     5.1954 
 C                    -4.0384   -9.3349    5.7809 
 H                    -4.881    -6.5511    3.236 
 H                    -6.5626   -8.2408    3.7972 
 H                    -3.8004   -10.1038   6.5 
 C                    -0.4791   -9.0087    8.0361 
 C                    -1.5714   -8.064     7.5268 
 C                    -1.6467   -8.233     5.9847 
 C                    -0.7692   -9.4836    5.7105 
 C                    -0.5367   -10.1736   7.0565 
 H                    -1.382    -7.0314    7.8244 
 H                    -2.5217   -8.3377    7.9883 
 H                    -1.219    -10.1575   4.9796 
 H                     0.195    -9.1886    5.2931 
 H                    -0.6439   -9.3209    9.0685 
 H                     0.4963   -8.5204    7.9892 
 H                     0.3733   -10.7755   7.067 
 H                    -1.3737   -10.8323   7.296 
 C                    -8.2601   -12.2643   6.1849 
 C                    -8.6475   -10.942    5.9865 
 C                    -7.6891   -9.984     5.6646 
 C                    -6.3381   -10.3349   5.5395 
 C                    -5.9687   -11.6713   5.7441 
 C                    -6.9232   -12.6335   6.0646 
 H                    -9.0022   -13.0092   6.4341 
 H                    -9.6855   -10.659    6.0844 
 H                    -7.9992   -8.9587    5.5263 
 H                    -4.9364   -11.9717   5.6398 
 H                    -6.6274   -13.6616   6.2158 
 H                     1.4556   -3.4292    4.335 
 H                     2.0167   -4.5658    5.5181 
 C                     2.6074   -5.0674    3.4855 
 H                     2.747    -6.1337    3.6731 
 H                     2.1822   -4.9901    2.4829 
 C                     3.9712   -4.3564    3.5216 
 H                     3.8355   -3.2903    3.3311 
 H                     4.4004   -4.4341    4.5221 
 C                     4.9642   -4.9291    2.5006 
 H                     5.92     -4.4064    2.5492 
 H                     5.1576   -5.9867    2.6846 
 H                     4.5871   -4.8315    1.4818 
 

 GradGradGradGradGradGradGradGradGradGradGradGradGradGradGradGradGradGrad
 Berny optimization.
 Initialization pass.
                           ----------------------------
                           !    Initial Parameters    !
                           ! (Angstroms and Degrees)  !
 --------------------------                            --------------------------
 ! Name  Definition              Value          Derivative Info.                !
 --------------------------------------------------------------------------------
 ! R1    R(1,4)                  1.5205         estimate D2E/DX2                !
 ! R2    R(1,44)                 1.0914         estimate D2E/DX2                !
 ! R3    R(1,45)                 1.0914         estimate D2E/DX2                !
 ! R4    R(1,46)                 1.5392         estimate D2E/DX2                !
 ! R5    R(2,3)                  1.3955         estimate D2E/DX2                !
 ! R6    R(2,6)                  1.0794         estimate D2E/DX2                !
 ! R7    R(2,9)                  1.3957         estimate D2E/DX2                !
 ! R8    R(3,4)                  1.3983         estimate D2E/DX2                !
 ! R9    R(3,7)                  1.0801         estimate D2E/DX2                !
 ! R10   R(4,5)                  1.3986         estimate D2E/DX2                !
 ! R11   R(5,8)                  1.0797         estimate D2E/DX2                !
 ! R12   R(5,10)                 1.3987         estimate D2E/DX2                !
 ! R13   R(9,10)                 1.3935         estimate D2E/DX2                !
 ! R14   R(9,12)                 1.4682         estimate D2E/DX2                !
 ! R15   R(10,22)                1.5252         estimate D2E/DX2                !
 ! R16   R(11,12)                1.3919         estimate D2E/DX2                !
 ! R17   R(11,16)                1.3983         estimate D2E/DX2                !
 ! R18   R(11,22)                1.5254         estimate D2E/DX2                !
 ! R19   R(12,13)                1.3938         estimate D2E/DX2                !
 ! R20   R(13,14)                1.3953         estimate D2E/DX2                !
 ! R21   R(13,17)                1.0793         estimate D2E/DX2                !
 ! R22   R(14,15)                1.4027         estimate D2E/DX2                !
 ! R23   R(14,18)                1.0797         estimate D2E/DX2                !
 ! R24   R(15,16)                1.4029         estimate D2E/DX2                !
 ! R25   R(15,36)                1.4927         estimate D2E/DX2                !
 ! R26   R(16,19)                1.0793         estimate D2E/DX2                !
 ! R27   R(20,21)                1.5313         estimate D2E/DX2                !
 ! R28   R(20,24)                1.5231         estimate D2E/DX2                !
 ! R29   R(20,29)                1.0911         estimate D2E/DX2                !
 ! R30   R(20,30)                1.0918         estimate D2E/DX2                !
 ! R31   R(21,22)                1.5532         estimate D2E/DX2                !
 ! R32   R(21,25)                1.0912         estimate D2E/DX2                !
 ! R33   R(21,26)                1.0913         estimate D2E/DX2                !
 ! R34   R(22,23)                1.5522         estimate D2E/DX2                !
 ! R35   R(23,24)                1.5303         estimate D2E/DX2                !
 ! R36   R(23,27)                1.0912         estimate D2E/DX2                !
 ! R37   R(23,28)                1.0913         estimate D2E/DX2                !
 ! R38   R(24,31)                1.0911         estimate D2E/DX2                !
 ! R39   R(24,32)                1.0917         estimate D2E/DX2                !
 ! R40   R(33,34)                1.3921         estimate D2E/DX2                !
 ! R41   R(33,38)                1.3922         estimate D2E/DX2                !
 ! R42   R(33,39)                1.0806         estimate D2E/DX2                !
 ! R43   R(34,35)                1.3928         estimate D2E/DX2                !
 ! R44   R(34,40)                1.0803         estimate D2E/DX2                !
 ! R45   R(35,36)                1.4014         estimate D2E/DX2                !
 ! R46   R(35,41)                1.0801         estimate D2E/DX2                !
 ! R47   R(36,37)                1.4015         estimate D2E/DX2                !
 ! R48   R(37,38)                1.3927         estimate D2E/DX2                !
 ! R49   R(37,42)                1.0802         estimate D2E/DX2                !
 ! R50   R(38,43)                1.0804         estimate D2E/DX2                !
 ! R51   R(46,47)                1.0916         estimate D2E/DX2                !
 ! R52   R(46,48)                1.0918         estimate D2E/DX2                !
 ! R53   R(46,49)                1.5384         estimate D2E/DX2                !
 ! R54   R(49,50)                1.0915         estimate D2E/DX2                !
 ! R55   R(49,51)                1.0914         estimate D2E/DX2                !
 ! R56   R(49,52)                1.5351         estimate D2E/DX2                !
 ! R57   R(52,53)                1.0905         estimate D2E/DX2                !
 ! R58   R(52,54)                1.0908         estimate D2E/DX2                !
 ! R59   R(52,55)                1.0907         estimate D2E/DX2                !
 ! A1    A(4,1,44)             109.0713         estimate D2E/DX2                !
 ! A2    A(4,1,45)             108.9854         estimate D2E/DX2                !
 ! A3    A(4,1,46)             112.5095         estimate D2E/DX2                !
 ! A4    A(44,1,45)            105.1861         estimate D2E/DX2                !
 ! A5    A(44,1,46)            110.4089         estimate D2E/DX2                !
 ! A6    A(45,1,46)            110.4065         estimate D2E/DX2                !
 ! A7    A(3,2,6)              119.5739         estimate D2E/DX2                !
 ! A8    A(3,2,9)              119.7042         estimate D2E/DX2                !
 ! A9    A(6,2,9)              120.7219         estimate D2E/DX2                !
 ! A10   A(2,3,4)              120.2812         estimate D2E/DX2                !
 ! A11   A(2,3,7)              119.4826         estimate D2E/DX2                !
 ! A12   A(4,3,7)              120.2362         estimate D2E/DX2                !
 ! A13   A(1,4,3)              120.2494         estimate D2E/DX2                !
 ! A14   A(1,4,5)              120.1903         estimate D2E/DX2                !
 ! A15   A(3,4,5)              119.5596         estimate D2E/DX2                !
 ! A16   A(4,5,8)              119.6666         estimate D2E/DX2                !
 ! A17   A(4,5,10)             120.3922         estimate D2E/DX2                !
 ! A18   A(8,5,10)             119.9411         estimate D2E/DX2                !
 ! A19   A(2,9,10)             120.5762         estimate D2E/DX2                !
 ! A20   A(2,9,12)             131.1038         estimate D2E/DX2                !
 ! A21   A(10,9,12)            108.32           estimate D2E/DX2                !
 ! A22   A(5,10,9)             119.4857         estimate D2E/DX2                !
 ! A23   A(5,10,22)            129.1343         estimate D2E/DX2                !
 ! A24   A(9,10,22)            111.3793         estimate D2E/DX2                !
 ! A25   A(12,11,16)           119.4428         estimate D2E/DX2                !
 ! A26   A(12,11,22)           111.4009         estimate D2E/DX2                !
 ! A27   A(16,11,22)           129.1559         estimate D2E/DX2                !
 ! A28   A(9,12,11)            108.3953         estimate D2E/DX2                !
 ! A29   A(9,12,13)            131.1634         estimate D2E/DX2                !
 ! A30   A(11,12,13)           120.4413         estimate D2E/DX2                !
 ! A31   A(12,13,14)           119.6627         estimate D2E/DX2                !
 ! A32   A(12,13,17)           120.7272         estimate D2E/DX2                !
 ! A33   A(14,13,17)           119.6096         estimate D2E/DX2                !
 ! A34   A(13,14,15)           121.0898         estimate D2E/DX2                !
 ! A35   A(13,14,18)           118.8197         estimate D2E/DX2                !
 ! A36   A(15,14,18)           120.0833         estimate D2E/DX2                !
 ! A37   A(14,15,16)           118.1573         estimate D2E/DX2                !
 ! A38   A(14,15,36)           120.9409         estimate D2E/DX2                !
 ! A39   A(16,15,36)           120.9018         estimate D2E/DX2                !
 ! A40   A(11,16,15)           121.2054         estimate D2E/DX2                !
 ! A41   A(11,16,19)           119.2463         estimate D2E/DX2                !
 ! A42   A(15,16,19)           119.5429         estimate D2E/DX2                !
 ! A43   A(21,20,24)           103.3526         estimate D2E/DX2                !
 ! A44   A(21,20,29)           112.5494         estimate D2E/DX2                !
 ! A45   A(21,20,30)           110.3073         estimate D2E/DX2                !
 ! A46   A(24,20,29)           112.5819         estimate D2E/DX2                !
 ! A47   A(24,20,30)           110.3779         estimate D2E/DX2                !
 ! A48   A(29,20,30)           107.6713         estimate D2E/DX2                !
 ! A49   A(20,21,22)           107.318          estimate D2E/DX2                !
 ! A50   A(20,21,25)           111.6709         estimate D2E/DX2                !
 ! A51   A(20,21,26)           109.012          estimate D2E/DX2                !
 ! A52   A(22,21,25)           112.4682         estimate D2E/DX2                !
 ! A53   A(22,21,26)           110.5098         estimate D2E/DX2                !
 ! A54   A(25,21,26)           105.8514         estimate D2E/DX2                !
 ! A55   A(10,22,11)           100.5045         estimate D2E/DX2                !
 ! A56   A(10,22,21)           113.3813         estimate D2E/DX2                !
 ! A57   A(10,22,23)           113.3117         estimate D2E/DX2                !
 ! A58   A(11,22,21)           113.2485         estimate D2E/DX2                !
 ! A59   A(11,22,23)           113.1926         estimate D2E/DX2                !
 ! A60   A(21,22,23)           103.6306         estimate D2E/DX2                !
 ! A61   A(22,23,24)           107.0855         estimate D2E/DX2                !
 ! A62   A(22,23,27)           112.5127         estimate D2E/DX2                !
 ! A63   A(22,23,28)           110.4424         estimate D2E/DX2                !
 ! A64   A(24,23,27)           111.9201         estimate D2E/DX2                !
 ! A65   A(24,23,28)           108.9088         estimate D2E/DX2                !
 ! A66   A(27,23,28)           105.9595         estimate D2E/DX2                !
 ! A67   A(20,24,23)           103.0964         estimate D2E/DX2                !
 ! A68   A(20,24,31)           112.5924         estimate D2E/DX2                !
 ! A69   A(20,24,32)           110.4481         estimate D2E/DX2                !
 ! A70   A(23,24,31)           112.5759         estimate D2E/DX2                !
 ! A71   A(23,24,32)           110.3973         estimate D2E/DX2                !
 ! A72   A(31,24,32)           107.7269         estimate D2E/DX2                !
 ! A73   A(34,33,38)           120.453          estimate D2E/DX2                !
 ! A74   A(34,33,39)           119.7711         estimate D2E/DX2                !
 ! A75   A(38,33,39)           119.7759         estimate D2E/DX2                !
 ! A76   A(33,34,35)           119.6555         estimate D2E/DX2                !
 ! A77   A(33,34,40)           120.2179         estimate D2E/DX2                !
 ! A78   A(35,34,40)           120.1263         estimate D2E/DX2                !
 ! A79   A(34,35,36)           120.781          estimate D2E/DX2                !
 ! A80   A(34,35,41)           119.0109         estimate D2E/DX2                !
 ! A81   A(36,35,41)           120.2018         estimate D2E/DX2                !
 ! A82   A(15,36,35)           120.6702         estimate D2E/DX2                !
 ! A83   A(15,36,37)           120.6569         estimate D2E/DX2                !
 ! A84   A(35,36,37)           118.6729         estimate D2E/DX2                !
 ! A85   A(36,37,38)           120.7796         estimate D2E/DX2                !
 ! A86   A(36,37,42)           120.197          estimate D2E/DX2                !
 ! A87   A(38,37,42)           119.017          estimate D2E/DX2                !
 ! A88   A(33,38,37)           119.6579         estimate D2E/DX2                !
 ! A89   A(33,38,43)           120.2102         estimate D2E/DX2                !
 ! A90   A(37,38,43)           120.1316         estimate D2E/DX2                !
 ! A91   A(1,46,47)            109.3605         estimate D2E/DX2                !
 ! A92   A(1,46,48)            109.3406         estimate D2E/DX2                !
 ! A93   A(1,46,49)            112.8172         estimate D2E/DX2                !
 ! A94   A(47,46,48)           106.068          estimate D2E/DX2                !
 ! A95   A(47,46,49)           109.5138         estimate D2E/DX2                !
 ! A96   A(48,46,49)           109.5163         estimate D2E/DX2                !
 ! A97   A(46,49,50)           109.7009         estimate D2E/DX2                !
 ! A98   A(46,49,51)           109.7071         estimate D2E/DX2                !
 ! A99   A(46,49,52)           112.6696         estimate D2E/DX2                !
 ! A100  A(50,49,51)           106.1661         estimate D2E/DX2                !
 ! A101  A(50,49,52)           109.1927         estimate D2E/DX2                !
 ! A102  A(51,49,52)           109.1933         estimate D2E/DX2                !
 ! A103  A(49,52,53)           111.0089         estimate D2E/DX2                !
 ! A104  A(49,52,54)           111.3601         estimate D2E/DX2                !
 ! A105  A(49,52,55)           111.3598         estimate D2E/DX2                !
 ! A106  A(53,52,54)           107.5676         estimate D2E/DX2                !
 ! A107  A(53,52,55)           107.5641         estimate D2E/DX2                !
 ! A108  A(54,52,55)           107.7958         estimate D2E/DX2                !
 ! D1    D(44,1,4,3)            32.0092         estimate D2E/DX2                !
 ! D2    D(44,1,4,5)          -148.2973         estimate D2E/DX2                !
 ! D3    D(45,1,4,3)           146.3432         estimate D2E/DX2                !
 ! D4    D(45,1,4,5)           -33.9632         estimate D2E/DX2                !
 ! D5    D(46,1,4,3)           -90.856          estimate D2E/DX2                !
 ! D6    D(46,1,4,5)            88.8375         estimate D2E/DX2                !
 ! D7    D(4,1,46,47)          -57.8126         estimate D2E/DX2                !
 ! D8    D(4,1,46,48)           57.9246         estimate D2E/DX2                !
 ! D9    D(4,1,46,49)         -179.9495         estimate D2E/DX2                !
 ! D10   D(44,1,46,47)        -179.9241         estimate D2E/DX2                !
 ! D11   D(44,1,46,48)         -64.1869         estimate D2E/DX2                !
 ! D12   D(44,1,46,49)          57.939          estimate D2E/DX2                !
 ! D13   D(45,1,46,47)          64.1865         estimate D2E/DX2                !
 ! D14   D(45,1,46,48)         179.9238         estimate D2E/DX2                !
 ! D15   D(45,1,46,49)         -57.9503         estimate D2E/DX2                !
 ! D16   D(6,2,3,4)            179.8858         estimate D2E/DX2                !
 ! D17   D(6,2,3,7)             -0.1717         estimate D2E/DX2                !
 ! D18   D(9,2,3,4)             -0.1376         estimate D2E/DX2                !
 ! D19   D(9,2,3,7)            179.805          estimate D2E/DX2                !
 ! D20   D(3,2,9,10)            -0.12           estimate D2E/DX2                !
 ! D21   D(3,2,9,12)           179.8393         estimate D2E/DX2                !
 ! D22   D(6,2,9,10)           179.8564         estimate D2E/DX2                !
 ! D23   D(6,2,9,12)            -0.1843         estimate D2E/DX2                !
 ! D24   D(2,3,4,1)            179.9144         estimate D2E/DX2                !
 ! D25   D(2,3,4,5)              0.2189         estimate D2E/DX2                !
 ! D26   D(7,3,4,1)             -0.0278         estimate D2E/DX2                !
 ! D27   D(7,3,4,5)           -179.7232         estimate D2E/DX2                !
 ! D28   D(1,4,5,8)              0.1263         estimate D2E/DX2                !
 ! D29   D(1,4,5,10)          -179.7405         estimate D2E/DX2                !
 ! D30   D(3,4,5,8)            179.8219         estimate D2E/DX2                !
 ! D31   D(3,4,5,10)            -0.0449         estimate D2E/DX2                !
 ! D32   D(4,5,10,9)            -0.2089         estimate D2E/DX2                !
 ! D33   D(4,5,10,22)         -179.8864         estimate D2E/DX2                !
 ! D34   D(8,5,10,9)           179.9247         estimate D2E/DX2                !
 ! D35   D(8,5,10,22)            0.2472         estimate D2E/DX2                !
 ! D36   D(2,9,10,5)             0.292          estimate D2E/DX2                !
 ! D37   D(2,9,10,22)         -179.9766         estimate D2E/DX2                !
 ! D38   D(12,9,10,5)         -179.6757         estimate D2E/DX2                !
 ! D39   D(12,9,10,22)           0.0557         estimate D2E/DX2                !
 ! D40   D(2,9,12,11)          179.937          estimate D2E/DX2                !
 ! D41   D(2,9,12,13)            0.0029         estimate D2E/DX2                !
 ! D42   D(10,9,12,11)          -0.0999         estimate D2E/DX2                !
 ! D43   D(10,9,12,13)         179.966          estimate D2E/DX2                !
 ! D44   D(5,10,22,11)         179.7038         estimate D2E/DX2                !
 ! D45   D(5,10,22,21)          58.5372         estimate D2E/DX2                !
 ! D46   D(5,10,22,23)         -59.2293         estimate D2E/DX2                !
 ! D47   D(9,10,22,11)           0.0053         estimate D2E/DX2                !
 ! D48   D(9,10,22,21)        -121.1613         estimate D2E/DX2                !
 ! D49   D(9,10,22,23)         121.0722         estimate D2E/DX2                !
 ! D50   D(16,11,12,9)        -179.6818         estimate D2E/DX2                !
 ! D51   D(16,11,12,13)          0.2606         estimate D2E/DX2                !
 ! D52   D(22,11,12,9)           0.1058         estimate D2E/DX2                !
 ! D53   D(22,11,12,13)       -179.9517         estimate D2E/DX2                !
 ! D54   D(12,11,16,15)         -0.263          estimate D2E/DX2                !
 ! D55   D(12,11,16,19)       -179.418          estimate D2E/DX2                !
 ! D56   D(22,11,16,15)        179.992          estimate D2E/DX2                !
 ! D57   D(22,11,16,19)          0.837          estimate D2E/DX2                !
 ! D58   D(12,11,22,10)         -0.069          estimate D2E/DX2                !
 ! D59   D(12,11,22,21)        121.192          estimate D2E/DX2                !
 ! D60   D(12,11,22,23)       -121.2207         estimate D2E/DX2                !
 ! D61   D(16,11,22,10)        179.6925         estimate D2E/DX2                !
 ! D62   D(16,11,22,21)        -59.0465         estimate D2E/DX2                !
 ! D63   D(16,11,22,23)         58.5408         estimate D2E/DX2                !
 ! D64   D(9,12,13,14)         179.8555         estimate D2E/DX2                !
 ! D65   D(9,12,13,17)           0.1067         estimate D2E/DX2                !
 ! D66   D(11,12,13,14)         -0.0719         estimate D2E/DX2                !
 ! D67   D(11,12,13,17)       -179.8208         estimate D2E/DX2                !
 ! D68   D(12,13,14,15)         -0.1209         estimate D2E/DX2                !
 ! D69   D(12,13,14,18)       -179.1411         estimate D2E/DX2                !
 ! D70   D(17,13,14,15)        179.6308         estimate D2E/DX2                !
 ! D71   D(17,13,14,18)          0.6106         estimate D2E/DX2                !
 ! D72   D(13,14,15,16)          0.1189         estimate D2E/DX2                !
 ! D73   D(13,14,15,36)       -179.8212         estimate D2E/DX2                !
 ! D74   D(18,14,15,16)        179.1268         estimate D2E/DX2                !
 ! D75   D(18,14,15,36)         -0.8133         estimate D2E/DX2                !
 ! D76   D(14,15,16,11)          0.0742         estimate D2E/DX2                !
 ! D77   D(14,15,16,19)        179.2267         estimate D2E/DX2                !
 ! D78   D(36,15,16,11)       -179.9858         estimate D2E/DX2                !
 ! D79   D(36,15,16,19)         -0.8332         estimate D2E/DX2                !
 ! D80   D(14,15,36,35)        -38.0387         estimate D2E/DX2                !
 ! D81   D(14,15,36,37)        141.969          estimate D2E/DX2                !
 ! D82   D(16,15,36,35)        142.0229         estimate D2E/DX2                !
 ! D83   D(16,15,36,37)        -37.9694         estimate D2E/DX2                !
 ! D84   D(24,20,21,22)        -31.4546         estimate D2E/DX2                !
 ! D85   D(24,20,21,25)       -155.1422         estimate D2E/DX2                !
 ! D86   D(24,20,21,26)         88.2559         estimate D2E/DX2                !
 ! D87   D(29,20,21,22)       -153.1835         estimate D2E/DX2                !
 ! D88   D(29,20,21,25)         83.1289         estimate D2E/DX2                !
 ! D89   D(29,20,21,26)        -33.4731         estimate D2E/DX2                !
 ! D90   D(30,20,21,22)         86.5433         estimate D2E/DX2                !
 ! D91   D(30,20,21,25)        -37.1443         estimate D2E/DX2                !
 ! D92   D(30,20,21,26)       -153.7462         estimate D2E/DX2                !
 ! D93   D(21,20,24,23)         39.4857         estimate D2E/DX2                !
 ! D94   D(21,20,24,31)        161.068          estimate D2E/DX2                !
 ! D95   D(21,20,24,32)        -78.4603         estimate D2E/DX2                !
 ! D96   D(29,20,24,23)        161.1928         estimate D2E/DX2                !
 ! D97   D(29,20,24,31)        -77.2249         estimate D2E/DX2                !
 ! D98   D(29,20,24,32)         43.2468         estimate D2E/DX2                !
 ! D99   D(30,20,24,23)        -78.463          estimate D2E/DX2                !
 ! D100  D(30,20,24,31)         43.1193         estimate D2E/DX2                !
 ! D101  D(30,20,24,32)        163.591          estimate D2E/DX2                !
 ! D102  D(20,21,22,10)       -112.5848         estimate D2E/DX2                !
 ! D103  D(20,21,22,11)        133.7173         estimate D2E/DX2                !
 ! D104  D(20,21,22,23)         10.6773         estimate D2E/DX2                !
 ! D105  D(25,21,22,10)         10.6133         estimate D2E/DX2                !
 ! D106  D(25,21,22,11)       -103.0845         estimate D2E/DX2                !
 ! D107  D(25,21,22,23)        133.8755         estimate D2E/DX2                !
 ! D108  D(26,21,22,10)        128.6664         estimate D2E/DX2                !
 ! D109  D(26,21,22,11)         14.9685         estimate D2E/DX2                !
 ! D110  D(26,21,22,23)       -108.0715         estimate D2E/DX2                !
 ! D111  D(10,22,23,24)        137.4392         estimate D2E/DX2                !
 ! D112  D(10,22,23,27)        -99.1828         estimate D2E/DX2                !
 ! D113  D(10,22,23,28)         18.9901         estimate D2E/DX2                !
 ! D114  D(11,22,23,24)       -108.9456         estimate D2E/DX2                !
 ! D115  D(11,22,23,27)         14.4325         estimate D2E/DX2                !
 ! D116  D(11,22,23,28)        132.6054         estimate D2E/DX2                !
 ! D117  D(21,22,23,24)         14.1312         estimate D2E/DX2                !
 ! D118  D(21,22,23,27)        137.5093         estimate D2E/DX2                !
 ! D119  D(21,22,23,28)       -104.3178         estimate D2E/DX2                !
 ! D120  D(22,23,24,20)        -33.6474         estimate D2E/DX2                !
 ! D121  D(22,23,24,31)       -155.2409         estimate D2E/DX2                !
 ! D122  D(22,23,24,32)         84.3343         estimate D2E/DX2                !
 ! D123  D(27,23,24,20)       -157.3903         estimate D2E/DX2                !
 ! D124  D(27,23,24,31)         81.0162         estimate D2E/DX2                !
 ! D125  D(27,23,24,32)        -39.4087         estimate D2E/DX2                !
 ! D126  D(28,23,24,20)         85.7932         estimate D2E/DX2                !
 ! D127  D(28,23,24,31)        -35.8003         estimate D2E/DX2                !
 ! D128  D(28,23,24,32)       -156.2251         estimate D2E/DX2                !
 ! D129  D(38,33,34,35)          0.0454         estimate D2E/DX2                !
 ! D130  D(38,33,34,40)       -179.7735         estimate D2E/DX2                !
 ! D131  D(39,33,34,35)       -179.9615         estimate D2E/DX2                !
 ! D132  D(39,33,34,40)          0.2196         estimate D2E/DX2                !
 ! D133  D(34,33,38,37)          0.0305         estimate D2E/DX2                !
 ! D134  D(34,33,38,43)       -179.7714         estimate D2E/DX2                !
 ! D135  D(39,33,38,37)       -179.9626         estimate D2E/DX2                !
 ! D136  D(39,33,38,43)          0.2355         estimate D2E/DX2                !
 ! D137  D(33,34,35,36)         -0.0797         estimate D2E/DX2                !
 ! D138  D(33,34,35,41)       -179.1659         estimate D2E/DX2                !
 ! D139  D(40,34,35,36)        179.7394         estimate D2E/DX2                !
 ! D140  D(40,34,35,41)          0.6532         estimate D2E/DX2                !
 ! D141  D(34,35,36,15)       -179.9551         estimate D2E/DX2                !
 ! D142  D(34,35,36,37)          0.0374         estimate D2E/DX2                !
 ! D143  D(41,35,36,15)         -0.8799         estimate D2E/DX2                !
 ! D144  D(41,35,36,37)        179.1127         estimate D2E/DX2                !
 ! D145  D(15,36,37,38)       -179.9679         estimate D2E/DX2                !
 ! D146  D(15,36,37,42)         -0.8983         estimate D2E/DX2                !
 ! D147  D(35,36,37,38)          0.0396         estimate D2E/DX2                !
 ! D148  D(35,36,37,42)        179.1092         estimate D2E/DX2                !
 ! D149  D(36,37,38,33)         -0.0734         estimate D2E/DX2                !
 ! D150  D(36,37,38,43)        179.7286         estimate D2E/DX2                !
 ! D151  D(42,37,38,33)       -179.1539         estimate D2E/DX2                !
 ! D152  D(42,37,38,43)          0.6481         estimate D2E/DX2                !
 ! D153  D(1,46,49,50)         -58.1334         estimate D2E/DX2                !
 ! D154  D(1,46,49,51)          58.123          estimate D2E/DX2                !
 ! D155  D(1,46,49,52)         179.9974         estimate D2E/DX2                !
 ! D156  D(47,46,49,50)        179.8159         estimate D2E/DX2                !
 ! D157  D(47,46,49,51)        -63.9276         estimate D2E/DX2                !
 ! D158  D(47,46,49,52)         57.9467         estimate D2E/DX2                !
 ! D159  D(48,46,49,50)         63.8936         estimate D2E/DX2                !
 ! D160  D(48,46,49,51)       -179.85           estimate D2E/DX2                !
 ! D161  D(48,46,49,52)        -57.9756         estimate D2E/DX2                !
 ! D162  D(46,49,52,53)        179.9946         estimate D2E/DX2                !
 ! D163  D(46,49,52,54)        -60.1795         estimate D2E/DX2                !
 ! D164  D(46,49,52,55)         60.1732         estimate D2E/DX2                !
 ! D165  D(50,49,52,53)         57.8383         estimate D2E/DX2                !
 ! D166  D(50,49,52,54)        177.6643         estimate D2E/DX2                !
 ! D167  D(50,49,52,55)        -61.983          estimate D2E/DX2                !
 ! D168  D(51,49,52,53)        -57.8409         estimate D2E/DX2                !
 ! D169  D(51,49,52,54)         61.985          estimate D2E/DX2                !
 ! D170  D(51,49,52,55)       -177.6623         estimate D2E/DX2                !
 --------------------------------------------------------------------------------
 Trust Radius=3.00D-01 FncErr=1.00D-07 GrdErr=1.00D-06 EigMax=2.50D+02 EigMin=1.00D-04
 Number of steps in this run=    330 maximum allowed number of steps=    330.
 GradGradGradGradGradGradGradGradGradGradGradGradGradGradGradGradGradGrad

 Stoichiometry    C27H28
 Framework group  C1[X(C27H28)]
 Deg. of freedom   159
 Full point group                 C1      NOp   1
 Largest Abelian subgroup         C1      NOp   1
 Largest concise Abelian subgroup C1      NOp   1
                         Standard orientation:                         
 ---------------------------------------------------------------------
 Center     Atomic      Atomic             Coordinates (Angstroms)
 Number     Number       Type             X           Y           Z
 ---------------------------------------------------------------------
      1          6           0        5.185389   -0.520274   -0.763920
      2          6           0        1.881136   -2.371876   -0.292640
      3          6           0        3.243392   -2.114215   -0.451810
      4          6           0        3.700747   -0.800327   -0.592482
      5          6           0        2.784034    0.255703   -0.568064
      6          1           0        1.540445   -3.390613   -0.186895
      7          1           0        3.942214   -2.937688   -0.464593
      8          1           0        3.135593    1.271096   -0.673635
      9          6           0        0.974490   -1.311000   -0.271359
     10          6           0        1.417987    0.003293   -0.405165
     11          6           0       -0.915271    0.031002   -0.167437
     12          6           0       -0.486212   -1.292428   -0.124067
     13          6           0       -1.405092   -2.327710    0.038626
     14          6           0       -2.763422   -2.032657    0.160092
     15          6           0       -3.222926   -0.707878    0.123859
     16          6           0       -2.278355    0.316170   -0.040783
     17          1           0       -1.077211   -3.355301    0.075764
     18          1           0       -3.461818   -2.844089    0.299634
     19          1           0       -2.608584    1.342818   -0.084350
     20          6           0        0.462417    3.308026   -1.223119
     21          6           0        0.134686    1.867960   -1.627800
     22          6           0        0.256330    0.990192   -0.352250
     23          6           0        0.383665    2.027828    0.795047
     24          6           0       -0.020813    3.386740    0.219177
     25          1           0        0.779382    1.520012   -2.436503
     26          1           0       -0.882646    1.831972   -2.021123
     27          1           0       -0.214281    1.761027    1.667946
     28          1           0        1.415919    2.084913    1.144506
     29          1           0       -0.020711    4.044019   -1.867619
     30          1           0        1.539449    3.479900   -1.273133
     31          1           0        0.422098    4.221456    0.764679
     32          1           0       -1.105452    3.506299    0.252024
     33          6           0       -7.401661    0.189827    0.509783
     34          6           0       -6.999113   -0.930419   -0.211968
     35          6           0       -5.642303   -1.219988   -0.334966
     36          6           0       -4.676420   -0.395767    0.258088
     37          6           0       -5.102445    0.727651    0.979695
     38          6           0       -6.457948    1.020898    1.107118
     39          1           0       -8.453870    0.415899    0.606925
     40          1           0       -7.734538   -1.570718   -0.677031
     41          1           0       -5.341021   -2.084072   -0.908653
     42          1           0       -4.379731    1.371691    1.458924
     43          1           0       -6.774903    1.887278    1.669500
     44          1           0        5.645118   -1.350875   -1.302327
     45          1           0        5.310315    0.346654   -1.415109
     46          6           0        5.900581   -0.289937    0.579466
     47          1           0        5.426932    0.542312    1.103579
     48          1           0        5.763560   -1.165683    1.216861
     49          6           0        7.403263   -0.004658    0.414120
     50          1           0        7.880574   -0.836572   -0.106810
     51          1           0        7.543783    0.872083   -0.220567
     52          6           0        8.113093    0.224573    1.755787
     53          1           0        9.174853    0.423939    1.607291
     54          1           0        7.689506    1.076740    2.288856
     55          1           0        8.029666   -0.648887    2.403700
 ---------------------------------------------------------------------
 Rotational constants (GHZ):           0.4779828           0.0764648           0.0696342
 Standard basis: def2TZVP (5D, 7F)
 There are  1140 symmetry adapted cartesian basis functions of A   symmetry.
 There are  1005 symmetry adapted basis functions of A   symmetry.
  1005 basis functions,  1601 primitive gaussians,  1140 cartesian basis functions
    95 alpha electrons       95 beta electrons
       nuclear repulsion energy      2243.9332775614 Hartrees.
 NAtoms=   55 NActive=   55 NUniq=   55 SFac= 1.00D+00 NAtFMM=   60 NAOKFM=F Big=F
 Integral buffers will be    131072 words long.
 Raffenetti 2 integral format.
 Two-electron integral symmetry is turned on.
 One-electron integrals computed using PRISM.
   1 Symmetry operations used in ECPInt.
 ECPInt:  NShTT=   83845 NPrTT=  251664 LenC2=   64767 LenP2D=  134742.
 LDataN:  DoStor=T MaxTD1= 6 Len=  172
 Number of processors reduced to  24 by ecpmxn.
 NBasis=  1005 RedAO= T EigKep=  4.32D-06  NBF=  1005
 NBsUse=  1005 1.00D-06 EigRej= -1.00D+00 NBFU=  1005
 ExpMin= 9.52D-02 ExpMax= 1.36D+04 ExpMxC= 4.63D+02 IAcc=3 IRadAn=         5 AccDes= 0.00D+00
 Harris functional with IExCor= 1009 and IRadAn=       5 diagonalized for initial guess.
 HarFok:  IExCor= 1009 AccDes= 0.00D+00 IRadAn=         5 IDoV= 1 UseB2=F ITyADJ=14
 ICtDFT=  3500011 ScaDFX=  1.000000  1.000000  1.000000  1.000000
 FoFCou: FMM=F IPFlag=           0 FMFlag=      100000 FMFlg1=           0
         NFxFlg=           0 DoJE=T BraDBF=F KetDBF=T FulRan=T
         wScrn=  0.000000 ICntrl=       500 IOpCl=  0 I1Cent=   200000004 NGrid=           0
         NMat0=    1 NMatS0=      1 NMatT0=    0 NMatD0=    1 NMtDS0=    0 NMtDT0=    0
 Petite list used in FoFCou.
 Requested convergence on RMS density matrix=1.00D-08 within 128 cycles.
 Requested convergence on MAX density matrix=1.00D-06.
 Requested convergence on             energy=1.00D-06.
 No special actions if energy rises.
 Integral accuracy reduced to 1.0D-05 until final iterations.
 Problem detected with inexpensive integrals.
 Switching to full accuracy and repeating last cycle.
 SCF Done:  E(RM062X) =  -1045.68299285     A.U. after   13 cycles
            NFock= 13  Conv=0.90D-08     -V/T= 2.0054

 **********************************************************************

            Population analysis using the SCF Density.

 **********************************************************************

 Orbital symmetries:
       Occupied  (A) (A) (A) (A) (A) (A) (A) (A) (A) (A) (A) (A)
                 (A) (A) (A) (A) (A) (A) (A) (A) (A) (A) (A) (A)
                 (A) (A) (A) (A) (A) (A) (A) (A) (A) (A) (A) (A)
                 (A) (A) (A) (A) (A) (A) (A) (A) (A) (A) (A) (A)
                 (A) (A) (A) (A) (A) (A) (A) (A) (A) (A) (A) (A)
                 (A) (A) (A) (A) (A) (A) (A) (A) (A) (A) (A) (A)
                 (A) (A) (A) (A) (A) (A) (A) (A) (A) (A) (A) (A)
                 (A) (A) (A) (A) (A) (A) (A) (A) (A) (A) (A)
       Virtual   (A) (A) (A) (A) (A) (A) (A) (A) (A) (A) (A) (A)
                 (A) (A) (A) (A) (A) (A) (A) (A) (A) (A) (A) (A)
                 (A) (A) (A) (A) (A) (A) (A) (A) (A) (A) (A) (A)
                 (A) (A) (A) (A) (A) (A) (A) (A) (A) (A) (A) (A)
                 (A) (A) (A) (A) (A) (A) (A) (A) (A) (A) (A) (A)
                 (A) (A) (A) (A) (A) (A) (A) (A) (A) (A) (A) (A)
                 (A) (A) (A) (A) (A) (A) (A) (A) (A) (A) (A) (A)
                 (A) (A) (A) (A) (A) (A) (A) (A) (A) (A) (A) (A)
                 (A) (A) (A) (A) (A) (A) (A) (A) (A) (A) (A) (A)
                 (A) (A) (A) (A) (A) (A) (A) (A) (A) (A) (A) (A)
                 (A) (A) (A) (A) (A) (A) (A) (A) (A) (A) (A) (A)
                 (A) (A) (A) (A) (A) (A) (A) (A) (A) (A) (A) (A)
                 (A) (A) (A) (A) (A) (A) (A) (A) (A) (A) (A) (A)
                 (A) (A) (A) (A) (A) (A) (A) (A) (A) (A) (A) (A)
                 (A) (A) (A) (A) (A) (A) (A) (A) (A) (A) (A) (A)
                 (A) (A) (A) (A) (A) (A) (A) (A) (A) (A) (A) (A)
                 (A) (A) (A) (A) (A) (A) (A) (A) (A) (A) (A) (A)
                 (A) (A) (A) (A) (A) (A) (A) (A) (A) (A) (A) (A)
                 (A) (A) (A) (A) (A) (A) (A) (A) (A) (A) (A) (A)
                 (A) (A) (A) (A) (A) (A) (A) (A) (A) (A) (A) (A)
                 (A) (A) (A) (A) (A) (A) (A) (A) (A) (A) (A) (A)
                 (A) (A) (A) (A) (A) (A) (A) (A) (A) (A) (A) (A)
                 (A) (A) (A) (A) (A) (A) (A) (A) (A) (A) (A) (A)
                 (A) (A) (A) (A) (A) (A) (A) (A) (A) (A) (A) (A)
                 (A) (A) (A) (A) (A) (A) (A) (A) (A) (A) (A) (A)
                 (A) (A) (A) (A) (A) (A) (A) (A) (A) (A) (A) (A)
                 (A) (A) (A) (A) (A) (A) (A) (A) (A) (A) (A) (A)
                 (A) (A) (A) (A) (A) (A) (A) (A) (A) (A) (A) (A)
                 (A) (A) (A) (A) (A) (A) (A) (A) (A) (A) (A) (A)
                 (A) (A) (A) (A) (A) (A) (A) (A) (A) (A) (A) (A)
                 (A) (A) (A) (A) (A) (A) (A) (A) (A) (A) (A) (A)
                 (A) (A) (A) (A) (A) (A) (A) (A) (A) (A) (A) (A)
                 (A) (A) (A) (A) (A) (A) (A) (A) (A) (A) (A) (A)
                 (A) (A) (A) (A) (A) (A) (A) (A) (A) (A) (A) (A)
                 (A) (A) (A) (A) (A) (A) (A) (A) (A) (A) (A) (A)
                 (A) (A) (A) (A) (A) (A) (A) (A) (A) (A) (A) (A)
                 (A) (A) (A) (A) (A) (A) (A) (A) (A) (A) (A) (A)
                 (A) (A) (A) (A) (A) (A) (A) (A) (A) (A) (A) (A)
                 (A) (A) (A) (A) (A) (A) (A) (A) (A) (A) (A) (A)
                 (A) (A) (A) (A) (A) (A) (A) (A) (A) (A) (A) (A)
                 (A) (A) (A) (A) (A) (A) (A) (A) (A) (A) (A) (A)
                 (A) (A) (A) (A) (A) (A) (A) (A) (A) (A) (A) (A)
                 (A) (A) (A) (A) (A) (A) (A) (A) (A) (A) (A) (A)
                 (A) (A) (A) (A) (A) (A) (A) (A) (A) (A) (A) (A)
                 (A) (A) (A) (A) (A) (A) (A) (A) (A) (A) (A) (A)
                 (A) (A) (A) (A) (A) (A) (A) (A) (A) (A) (A) (A)
                 (A) (A) (A) (A) (A) (A) (A) (A) (A) (A) (A) (A)
                 (A) (A) (A) (A) (A) (A) (A) (A) (A) (A) (A) (A)
                 (A) (A) (A) (A) (A) (A) (A) (A) (A) (A) (A) (A)
                 (A) (A) (A) (A) (A) (A) (A) (A) (A) (A) (A) (A)
                 (A) (A) (A) (A) (A) (A) (A) (A) (A) (A) (A) (A)
                 (A) (A) (A) (A) (A) (A) (A) (A) (A) (A) (A) (A)
                 (A) (A) (A) (A) (A) (A) (A) (A) (A) (A) (A) (A)
                 (A) (A) (A) (A) (A) (A) (A) (A) (A) (A) (A) (A)
                 (A) (A) (A) (A) (A) (A) (A) (A) (A) (A) (A) (A)
                 (A) (A) (A) (A) (A) (A) (A) (A) (A) (A) (A) (A)
                 (A) (A) (A) (A) (A) (A) (A) (A) (A) (A) (A) (A)
                 (A) (A) (A) (A) (A) (A) (A) (A) (A) (A) (A) (A)
                 (A) (A) (A) (A) (A) (A) (A) (A) (A) (A) (A) (A)
                 (A) (A) (A) (A) (A) (A) (A) (A) (A) (A) (A) (A)
                 (A) (A) (A) (A) (A) (A) (A) (A) (A) (A) (A) (A)
                 (A) (A) (A) (A) (A) (A) (A) (A) (A) (A) (A) (A)
                 (A) (A) (A) (A) (A) (A) (A) (A) (A) (A) (A) (A)
                 (A) (A) (A) (A) (A) (A) (A) (A) (A) (A) (A) (A)
                 (A) (A) (A) (A) (A) (A) (A) (A) (A) (A) (A) (A)
                 (A) (A) (A) (A) (A) (A) (A) (A) (A) (A) (A) (A)
                 (A) (A) (A) (A) (A) (A) (A) (A) (A) (A) (A) (A)
                 (A) (A) (A) (A) (A) (A) (A) (A) (A) (A) (A) (A)
                 (A) (A) (A) (A) (A) (A) (A) (A) (A) (A) (A) (A)
                 (A) (A) (A) (A) (A) (A) (A) (A) (A) (A) (A) (A)
                 (A) (A) (A) (A) (A) (A) (A) (A) (A) (A) (A) (A)
                 (A) (A) (A) (A) (A) (A) (A) (A) (A) (A) (A) (A)
                 (A) (A) (A) (A) (A) (A) (A) (A) (A) (A) (A) (A)
                 (A) (A) (A) (A) (A) (A) (A) (A) (A) (A) (A) (A)
                 (A) (A) (A) (A) (A) (A) (A) (A) (A) (A) (A) (A)
                 (A) (A) (A) (A) (A) (A) (A) (A) (A) (A)
 The electronic state is 1-A.
 Alpha  occ. eigenvalues --  -10.55708 -10.55410 -10.55248 -10.54663 -10.54313
 Alpha  occ. eigenvalues --  -10.54247 -10.54243 -10.54232 -10.54228 -10.54166
 Alpha  occ. eigenvalues --  -10.54148 -10.54117 -10.54114 -10.54075 -10.54011
 Alpha  occ. eigenvalues --  -10.54000 -10.53998 -10.53785 -10.53653 -10.53514
 Alpha  occ. eigenvalues --  -10.53263 -10.53194 -10.53101 -10.53018 -10.53012
 Alpha  occ. eigenvalues --  -10.52962 -10.52165  -0.99920  -0.96874  -0.94912
 Alpha  occ. eigenvalues --   -0.94076  -0.90913  -0.88803  -0.86287  -0.85342
 Alpha  occ. eigenvalues --   -0.84463  -0.83472  -0.82168  -0.80723  -0.79006
 Alpha  occ. eigenvalues --   -0.78704  -0.73438  -0.71530  -0.69910  -0.69081
 Alpha  occ. eigenvalues --   -0.66877  -0.66363  -0.66157  -0.65880  -0.64527
 Alpha  occ. eigenvalues --   -0.62387  -0.59466  -0.58438  -0.56100  -0.55641
 Alpha  occ. eigenvalues --   -0.54744  -0.53971  -0.53345  -0.52044  -0.51571
 Alpha  occ. eigenvalues --   -0.50838  -0.50348  -0.49907  -0.49436  -0.48971
 Alpha  occ. eigenvalues --   -0.48897  -0.48366  -0.47952  -0.47198  -0.46424
 Alpha  occ. eigenvalues --   -0.44987  -0.44536  -0.44266  -0.43715  -0.42171
 Alpha  occ. eigenvalues --   -0.41662  -0.41161  -0.40912  -0.40506  -0.40222
 Alpha  occ. eigenvalues --   -0.39794  -0.39633  -0.39525  -0.39212  -0.38725
 Alpha  occ. eigenvalues --   -0.38643  -0.37840  -0.37335  -0.36496  -0.34300
 Alpha  occ. eigenvalues --   -0.30896  -0.30295  -0.29919  -0.29602  -0.25367
 Alpha virt. eigenvalues --   -0.01680   0.00820   0.01987   0.02884   0.03334
 Alpha virt. eigenvalues --    0.05487   0.06425   0.07519   0.07659   0.08699
 Alpha virt. eigenvalues --    0.08804   0.09255   0.09582   0.10060   0.10431
 Alpha virt. eigenvalues --    0.10627   0.11198   0.11654   0.12099   0.12554
 Alpha virt. eigenvalues --    0.13352   0.13580   0.13784   0.14188   0.14453
 Alpha virt. eigenvalues --    0.14597   0.15193   0.15396   0.15839   0.16297
 Alpha virt. eigenvalues --    0.16352   0.16617   0.16838   0.17503   0.17605
 Alpha virt. eigenvalues --    0.18477   0.18763   0.18927   0.19644   0.20144
 Alpha virt. eigenvalues --    0.20423   0.21052   0.21645   0.22026   0.22204
 Alpha virt. eigenvalues --    0.22515   0.22654   0.22925   0.23132   0.23612
 Alpha virt. eigenvalues --    0.23729   0.24001   0.24422   0.24938   0.24978
 Alpha virt. eigenvalues --    0.25539   0.25744   0.26276   0.26456   0.26748
 Alpha virt. eigenvalues --    0.26953   0.27058   0.27734   0.27918   0.28383
 Alpha virt. eigenvalues --    0.28577   0.29340   0.29436   0.29671   0.30158
 Alpha virt. eigenvalues --    0.31064   0.31429   0.31720   0.32181   0.32688
 Alpha virt. eigenvalues --    0.32900   0.33136   0.33502   0.33791   0.33891
 Alpha virt. eigenvalues --    0.34291   0.34924   0.35558   0.35874   0.36422
 Alpha virt. eigenvalues --    0.36665   0.37124   0.37302   0.37734   0.38240
 Alpha virt. eigenvalues --    0.38385   0.38644   0.39196   0.39575   0.40107
 Alpha virt. eigenvalues --    0.40309   0.40531   0.41027   0.41280   0.41564
 Alpha virt. eigenvalues --    0.41938   0.42391   0.42513   0.42690   0.42955
 Alpha virt. eigenvalues --    0.43224   0.43755   0.43983   0.44324   0.44522
 Alpha virt. eigenvalues --    0.44646   0.44791   0.45150   0.45417   0.45641
 Alpha virt. eigenvalues --    0.46054   0.46282   0.46408   0.46933   0.47161
 Alpha virt. eigenvalues --    0.47391   0.47703   0.47893   0.48297   0.48525
 Alpha virt. eigenvalues --    0.48637   0.48929   0.49388   0.49535   0.50155
 Alpha virt. eigenvalues --    0.50328   0.50651   0.50726   0.51099   0.51301
 Alpha virt. eigenvalues --    0.51450   0.51736   0.52045   0.52612   0.53007
 Alpha virt. eigenvalues --    0.53205   0.53336   0.53613   0.53869   0.54734
 Alpha virt. eigenvalues --    0.55118   0.55369   0.55645   0.56359   0.57023
 Alpha virt. eigenvalues --    0.57249   0.57595   0.57801   0.58453   0.58830
 Alpha virt. eigenvalues --    0.60261   0.60385   0.60902   0.61167   0.61438
 Alpha virt. eigenvalues --    0.62361   0.62878   0.63373   0.63701   0.64546
 Alpha virt. eigenvalues --    0.64972   0.66177   0.66532   0.67004   0.67315
 Alpha virt. eigenvalues --    0.67382   0.68064   0.68641   0.69198   0.69659
 Alpha virt. eigenvalues --    0.70153   0.70248   0.70894   0.71609   0.72021
 Alpha virt. eigenvalues --    0.72335   0.72899   0.73094   0.73708   0.73988
 Alpha virt. eigenvalues --    0.74451   0.74911   0.75295   0.75898   0.76554
 Alpha virt. eigenvalues --    0.77305   0.77545   0.78252   0.78541   0.79146
 Alpha virt. eigenvalues --    0.79186   0.79486   0.80165   0.80509   0.81209
 Alpha virt. eigenvalues --    0.81534   0.81847   0.82828   0.83259   0.83540
 Alpha virt. eigenvalues --    0.84165   0.84645   0.85334   0.86223   0.86909
 Alpha virt. eigenvalues --    0.87242   0.87831   0.87934   0.88450   0.88808
 Alpha virt. eigenvalues --    0.89066   0.89620   0.89870   0.90531   0.91080
 Alpha virt. eigenvalues --    0.91290   0.91848   0.92318   0.93216   0.93764
 Alpha virt. eigenvalues --    0.93890   0.94433   0.95249   0.95754   0.96276
 Alpha virt. eigenvalues --    0.96429   0.97095   0.97465   0.97843   0.98430
 Alpha virt. eigenvalues --    0.99265   0.99794   1.00736   1.01823   1.03105
 Alpha virt. eigenvalues --    1.03479   1.04114   1.04414   1.04801   1.05208
 Alpha virt. eigenvalues --    1.05572   1.05783   1.06368   1.07366   1.07667
 Alpha virt. eigenvalues --    1.07957   1.09020   1.09211   1.10497   1.10757
 Alpha virt. eigenvalues --    1.11056   1.12047   1.12348   1.12742   1.13280
 Alpha virt. eigenvalues --    1.13925   1.14498   1.15182   1.15619   1.15775
 Alpha virt. eigenvalues --    1.16638   1.17135   1.17943   1.18180   1.18913
 Alpha virt. eigenvalues --    1.19289   1.20308   1.20537   1.21584   1.22439
 Alpha virt. eigenvalues --    1.23319   1.23670   1.24232   1.24812   1.25343
 Alpha virt. eigenvalues --    1.25686   1.26202   1.26695   1.27399   1.27980
 Alpha virt. eigenvalues --    1.28594   1.29055   1.29590   1.30151   1.30599
 Alpha virt. eigenvalues --    1.31128   1.31287   1.31482   1.32077   1.32092
 Alpha virt. eigenvalues --    1.32596   1.33543   1.34385   1.34663   1.34914
 Alpha virt. eigenvalues --    1.36282   1.36693   1.37161   1.37538   1.38019
 Alpha virt. eigenvalues --    1.38737   1.39407   1.40272   1.40795   1.41828
 Alpha virt. eigenvalues --    1.42340   1.43524   1.44167   1.44698   1.45747
 Alpha virt. eigenvalues --    1.46501   1.46841   1.48553   1.49078   1.49262
 Alpha virt. eigenvalues --    1.49563   1.50457   1.51477   1.51847   1.52993
 Alpha virt. eigenvalues --    1.53497   1.54096   1.54305   1.54793   1.55750
 Alpha virt. eigenvalues --    1.56452   1.57129   1.57545   1.57915   1.58028
 Alpha virt. eigenvalues --    1.58542   1.59149   1.59306   1.59825   1.60161
 Alpha virt. eigenvalues --    1.61016   1.61338   1.61886   1.62530   1.62650
 Alpha virt. eigenvalues --    1.62773   1.63099   1.63807   1.64004   1.64797
 Alpha virt. eigenvalues --    1.65481   1.65841   1.66345   1.66472   1.66879
 Alpha virt. eigenvalues --    1.67395   1.68157   1.68618   1.68993   1.70122
 Alpha virt. eigenvalues --    1.71032   1.71246   1.71620   1.72691   1.72893
 Alpha virt. eigenvalues --    1.73636   1.74262   1.75425   1.76080   1.76271
 Alpha virt. eigenvalues --    1.76701   1.76912   1.77914   1.78159   1.78804
 Alpha virt. eigenvalues --    1.79415   1.79530   1.80206   1.80507   1.80755
 Alpha virt. eigenvalues --    1.81596   1.82863   1.84010   1.84918   1.85800
 Alpha virt. eigenvalues --    1.85947   1.86331   1.86991   1.88094   1.88440
 Alpha virt. eigenvalues --    1.89189   1.89623   1.90339   1.90888   1.91005
 Alpha virt. eigenvalues --    1.91913   1.92636   1.93180   1.93498   1.94090
 Alpha virt. eigenvalues --    1.94636   1.95392   1.96198   1.96713   1.97366
 Alpha virt. eigenvalues --    1.98484   1.98980   2.00533   2.01137   2.01502
 Alpha virt. eigenvalues --    2.01774   2.03843   2.04221   2.04760   2.05025
 Alpha virt. eigenvalues --    2.06114   2.06614   2.06923   2.07179   2.07757
 Alpha virt. eigenvalues --    2.08022   2.08255   2.09714   2.10350   2.10970
 Alpha virt. eigenvalues --    2.11061   2.11912   2.12830   2.13523   2.14446
 Alpha virt. eigenvalues --    2.14879   2.16438   2.17861   2.18351   2.19756
 Alpha virt. eigenvalues --    2.20072   2.20767   2.20956   2.21202   2.23464
 Alpha virt. eigenvalues --    2.23735   2.24348   2.24875   2.25073   2.26185
 Alpha virt. eigenvalues --    2.26590   2.26881   2.27216   2.27428   2.28207
 Alpha virt. eigenvalues --    2.28745   2.29593   2.30391   2.32244   2.32600
 Alpha virt. eigenvalues --    2.33324   2.34607   2.35021   2.35452   2.35738
 Alpha virt. eigenvalues --    2.37011   2.37825   2.38378   2.39066   2.40205
 Alpha virt. eigenvalues --    2.40802   2.41618   2.42248   2.42878   2.43582
 Alpha virt. eigenvalues --    2.44539   2.44864   2.44978   2.45718   2.46458
 Alpha virt. eigenvalues --    2.46919   2.47307   2.47792   2.48968   2.49415
 Alpha virt. eigenvalues --    2.49793   2.50560   2.51384   2.51693   2.52436
 Alpha virt. eigenvalues --    2.53346   2.53777   2.53920   2.54765   2.55284
 Alpha virt. eigenvalues --    2.55867   2.56597   2.56960   2.57541   2.58229
 Alpha virt. eigenvalues --    2.58951   2.59622   2.59921   2.60224   2.60959
 Alpha virt. eigenvalues --    2.61425   2.62148   2.62744   2.63025   2.63496
 Alpha virt. eigenvalues --    2.63920   2.64485   2.64993   2.65283   2.65655
 Alpha virt. eigenvalues --    2.66055   2.66490   2.66672   2.67353   2.67929
 Alpha virt. eigenvalues --    2.68178   2.68401   2.68841   2.69112   2.69301
 Alpha virt. eigenvalues --    2.69703   2.69878   2.70651   2.71449   2.71637
 Alpha virt. eigenvalues --    2.72130   2.72623   2.73219   2.73364   2.73761
 Alpha virt. eigenvalues --    2.74472   2.74847   2.75085   2.75349   2.75960
 Alpha virt. eigenvalues --    2.76122   2.76380   2.77155   2.77337   2.77600
 Alpha virt. eigenvalues --    2.78136   2.78692   2.79506   2.79708   2.80374
 Alpha virt. eigenvalues --    2.80565   2.81051   2.82394   2.82462   2.83151
 Alpha virt. eigenvalues --    2.83590   2.84380   2.84706   2.85452   2.85895
 Alpha virt. eigenvalues --    2.86226   2.86763   2.87213   2.87604   2.88170
 Alpha virt. eigenvalues --    2.88616   2.89155   2.89472   2.90060   2.91123
 Alpha virt. eigenvalues --    2.92195   2.92348   2.93257   2.94023   2.94648
 Alpha virt. eigenvalues --    2.95463   2.95905   2.96394   2.97179   2.97720
 Alpha virt. eigenvalues --    2.98982   2.99232   2.99908   3.01215   3.01699
 Alpha virt. eigenvalues --    3.02588   3.02859   3.03539   3.04109   3.04612
 Alpha virt. eigenvalues --    3.04888   3.05733   3.06244   3.07129   3.07214
 Alpha virt. eigenvalues --    3.07800   3.08070   3.08332   3.08825   3.08993
 Alpha virt. eigenvalues --    3.09684   3.10039   3.11262   3.12043   3.12148
 Alpha virt. eigenvalues --    3.12485   3.12595   3.12983   3.14104   3.14681
 Alpha virt. eigenvalues --    3.15543   3.15773   3.16286   3.16632   3.17052
 Alpha virt. eigenvalues --    3.17481   3.17906   3.18447   3.19064   3.19386
 Alpha virt. eigenvalues --    3.19761   3.20933   3.21234   3.21418   3.21607
 Alpha virt. eigenvalues --    3.22322   3.22498   3.22896   3.23514   3.23975
 Alpha virt. eigenvalues --    3.24805   3.25013   3.25561   3.25991   3.26366
 Alpha virt. eigenvalues --    3.26633   3.27062   3.27674   3.27871   3.28683
 Alpha virt. eigenvalues --    3.29063   3.29748   3.29984   3.30402   3.30877
 Alpha virt. eigenvalues --    3.31192   3.31867   3.32030   3.32218   3.33262
 Alpha virt. eigenvalues --    3.33650   3.33690   3.34276   3.35613   3.35803
 Alpha virt. eigenvalues --    3.36593   3.37014   3.37218   3.37318   3.37682
 Alpha virt. eigenvalues --    3.37989   3.38340   3.38565   3.39229   3.39778
 Alpha virt. eigenvalues --    3.40134   3.40997   3.41086   3.41782   3.42045
 Alpha virt. eigenvalues --    3.42461   3.42928   3.43262   3.44040   3.44765
 Alpha virt. eigenvalues --    3.45033   3.45256   3.46002   3.46142   3.47048
 Alpha virt. eigenvalues --    3.47287   3.48325   3.48765   3.49178   3.49483
 Alpha virt. eigenvalues --    3.50346   3.51072   3.51299   3.51939   3.52376
 Alpha virt. eigenvalues --    3.52837   3.52955   3.53680   3.53880   3.54293
 Alpha virt. eigenvalues --    3.54820   3.55029   3.55730   3.56062   3.56690
 Alpha virt. eigenvalues --    3.57142   3.57418   3.58098   3.58326   3.58446
 Alpha virt. eigenvalues --    3.59012   3.59615   3.60117   3.60397   3.60778
 Alpha virt. eigenvalues --    3.61318   3.62448   3.63278   3.63530   3.64394
 Alpha virt. eigenvalues --    3.64969   3.65429   3.66649   3.67576   3.67661
 Alpha virt. eigenvalues --    3.68275   3.69555   3.70626   3.71201   3.71832
 Alpha virt. eigenvalues --    3.74355   3.75583   3.75985   3.76389   3.77828
 Alpha virt. eigenvalues --    3.78567   3.79052   3.79992   3.80427   3.81054
 Alpha virt. eigenvalues --    3.82200   3.83346   3.84353   3.85946   3.86805
 Alpha virt. eigenvalues --    3.87968   3.88731   3.88831   3.89084   3.90093
 Alpha virt. eigenvalues --    3.90821   3.91652   3.92097   3.93238   3.94501
 Alpha virt. eigenvalues --    3.94978   3.95197   3.96609   3.97604   3.98529
 Alpha virt. eigenvalues --    3.99549   4.00318   4.01514   4.02458   4.04029
 Alpha virt. eigenvalues --    4.04420   4.04811   4.05521   4.06018   4.06464
 Alpha virt. eigenvalues --    4.06975   4.07677   4.08085   4.08447   4.09339
 Alpha virt. eigenvalues --    4.11078   4.11672   4.12722   4.13079   4.13934
 Alpha virt. eigenvalues --    4.14688   4.15443   4.15949   4.16519   4.17741
 Alpha virt. eigenvalues --    4.18418   4.18439   4.18771   4.19494   4.19832
 Alpha virt. eigenvalues --    4.20247   4.20569   4.20871   4.22026   4.22508
 Alpha virt. eigenvalues --    4.23025   4.23689   4.24642   4.24910   4.26388
 Alpha virt. eigenvalues --    4.26764   4.27819   4.28236   4.29140   4.29959
 Alpha virt. eigenvalues --    4.30643   4.31359   4.32561   4.33520   4.34539
 Alpha virt. eigenvalues --    4.35551   4.36717   4.37560   4.37936   4.38740
 Alpha virt. eigenvalues --    4.39329   4.40952   4.41959   4.43386   4.45838
 Alpha virt. eigenvalues --    4.46039   4.46360   4.47580   4.49698   4.49973
 Alpha virt. eigenvalues --    4.50781   4.51875   4.52548   4.52963   4.53934
 Alpha virt. eigenvalues --    4.55209   4.55547   4.56714   4.57150   4.58556
 Alpha virt. eigenvalues --    4.59150   4.60548   4.62404   4.63818   4.64400
 Alpha virt. eigenvalues --    4.65332   4.65870   4.66389   4.67348   4.68319
 Alpha virt. eigenvalues --    4.71954   4.72915   4.74230   4.74966   4.76060
 Alpha virt. eigenvalues --    4.77917   4.78983   4.80297   4.82379   4.83649
 Alpha virt. eigenvalues --    4.85156   4.85588   4.86966   4.88976   4.89393
 Alpha virt. eigenvalues --    4.90875   4.92000   4.92594   4.93217   4.94789
 Alpha virt. eigenvalues --    4.96960   4.98817   4.99310   5.05307   5.05767
 Alpha virt. eigenvalues --    5.09762   5.11518   5.14367   5.16564   5.18457
 Alpha virt. eigenvalues --    5.21971   5.22712   5.29411   5.31045   5.33934
 Alpha virt. eigenvalues --    5.34359   5.36606   5.39842   5.44618   5.49639
 Alpha virt. eigenvalues --    5.53208   5.55210   5.58367   5.65684   5.69342
 Alpha virt. eigenvalues --    5.71497   5.75072   6.04877  22.20137  22.38716
 Alpha virt. eigenvalues --   22.42845  22.51844  22.54143  22.58316  22.62216
 Alpha virt. eigenvalues --   22.63605  22.68335  22.71464  22.73953  22.74765
 Alpha virt. eigenvalues --   22.77450  22.78654  22.84297  22.86554  22.90178
 Alpha virt. eigenvalues --   22.91953  22.95299  23.01916  23.15762  23.16887
 Alpha virt. eigenvalues --   23.20126  23.27131  23.40793  23.77608  23.95019
          Condensed to atoms (all electrons):
 Mulliken charges:
               1
     1  C   -0.457251
     2  C   -0.241839
     3  C   -0.169009
     4  C    0.179377
     5  C   -0.275048
     6  H    0.138240
     7  H    0.146536
     8  H    0.176268
     9  C    0.084222
    10  C    0.033573
    11  C   -0.001715
    12  C    0.097880
    13  C   -0.246903
    14  C   -0.190993
    15  C    0.118106
    16  C   -0.287927
    17  H    0.140107
    18  H    0.158809
    19  H    0.203031
    20  C   -0.250127
    21  C   -0.325273
    22  C   -0.005704
    23  C   -0.319093
    24  C   -0.256666
    25  H    0.161735
    26  H    0.168435
    27  H    0.162760
    28  H    0.163925
    29  H    0.140963
    30  H    0.135528
    31  H    0.140829
    32  H    0.134737
    33  C   -0.146085
    34  C   -0.153621
    35  C   -0.215758
    36  C    0.100436
    37  C   -0.212623
    38  C   -0.153738
    39  H    0.140982
    40  H    0.143932
    41  H    0.164500
    42  H    0.163744
    43  H    0.143652
    44  H    0.165839
    45  H    0.164571
    46  C   -0.270736
    47  H    0.148654
    48  H    0.149564
    49  C   -0.244353
    50  H    0.131823
    51  H    0.131640
    52  C   -0.425053
    53  H    0.141333
    54  H    0.136549
    55  H    0.137235
 Sum of Mulliken charges =  -0.00000
 Mulliken charges with hydrogens summed into heavy atoms:
               1
     1  C   -0.126841
     2  C   -0.103599
     3  C   -0.022473
     4  C    0.179377
     5  C   -0.098780
     9  C    0.084222
    10  C    0.033573
    11  C   -0.001715
    12  C    0.097880
    13  C   -0.106796
    14  C   -0.032184
    15  C    0.118106
    16  C   -0.084896
    20  C    0.026364
    21  C    0.004896
    22  C   -0.005704
    23  C    0.007592
    24  C    0.018900
    33  C   -0.005103
    34  C   -0.009689
    35  C   -0.051258
    36  C    0.100436
    37  C   -0.048879
    38  C   -0.010087
    46  C    0.027482
    49  C    0.019111
    52  C   -0.009935
 Electronic spatial extent (au):  <R**2>=          15290.3982
 Charge=             -0.0000 electrons
 Dipole moment (field-independent basis, Debye):
    X=              0.6853    Y=              0.7757    Z=             -0.0753  Tot=              1.0378
 Quadrupole moment (field-independent basis, Debye-Ang):
   XX=           -148.2351   YY=           -150.8284   ZZ=           -168.1449
   XY=             -0.3028   XZ=             -0.9879   YZ=              2.3668
 Traceless Quadrupole moment (field-independent basis, Debye-Ang):
   XX=              7.5010   YY=              4.9077   ZZ=            -12.4088
   XY=             -0.3028   XZ=             -0.9879   YZ=              2.3668
 Octapole moment (field-independent basis, Debye-Ang**2):
  XXX=            -33.3323  YYY=            -16.5282  ZZZ=             -0.3660  XYY=             -1.1474
  XXY=             -6.2533  XXZ=             -8.2394  XZZ=              8.2229  YZZ=             14.0959
  YYZ=              0.6962  XYZ=            -21.4067
 Hexadecapole moment (field-independent basis, Debye-Ang**3):
 XXXX=         -17042.7915 YYYY=          -2521.3553 ZZZZ=           -835.5821 XXXY=            -37.9399
 XXXZ=            -54.9717 YYYX=             -5.3342 YYYZ=              8.1889 ZZZX=             13.3539
 ZZZY=             -2.5214 XXYY=          -3334.1791 XXZZ=          -3295.0572 YYZZ=           -581.7572
 XXYZ=            140.1270 YYXZ=              0.3446 ZZXY=            -19.2209
 N-N= 2.243933277561D+03 E-N=-6.911043548973D+03  KE= 1.040057980268D+03
 ******************************Gaussian NBO Version 3.1******************************
             N A T U R A L   A T O M I C   O R B I T A L   A N D
          N A T U R A L   B O N D   O R B I T A L   A N A L Y S I S
 ******************************Gaussian NBO Version 3.1******************************
       /RESON  / : Allow strongly delocalized NBO set

 Analyzing the SCF density

 Job title: Structure697                                                    

 Storage needed:   3040210 in NPA,   4046171 in NBO (1048560325 available)
 GSVD:  LWork=      424671 too small for GESVD, short by      741186 words or      741186 for optimal perf.


 NATURAL POPULATIONS:  Natural atomic orbital occupancies 
                                                          
   NAO  Atom  No  lang   Type(AO)    Occupancy      Energy
 ----------------------------------------------------------
     1    C    1  S      Cor( 1S)     1.99939     -10.38583
     2    C    1  S      Val( 2S)     1.04001      -0.28877
     3    C    1  S      Ryd( 4S)     0.00099       1.81843
     4    C    1  S      Ryd( 3S)     0.00002       1.49715
     5    C    1  S      Ryd( 5S)     0.00000      21.67108
     6    C    1  px     Val( 2p)     1.04972      -0.09135
     7    C    1  px     Ryd( 3p)     0.00163       1.05845
     8    C    1  px     Ryd( 4p)     0.00053       1.52057
     9    C    1  py     Val( 2p)     1.20357      -0.10695
    10    C    1  py     Ryd( 3p)     0.00292       1.13403
    11    C    1  py     Ryd( 4p)     0.00031       1.45076
    12    C    1  pz     Val( 2p)     1.10308      -0.09870
    13    C    1  pz     Ryd( 3p)     0.00049       0.90252
    14    C    1  pz     Ryd( 4p)     0.00022       1.33061
    15    C    1  dxy    Ryd( 3d)     0.00057       1.65051
    16    C    1  dxy    Ryd( 4d)     0.00021       3.09440
    17    C    1  dxz    Ryd( 3d)     0.00057       1.61644
    18    C    1  dxz    Ryd( 4d)     0.00027       3.25732
    19    C    1  dyz    Ryd( 3d)     0.00149       1.65077
    20    C    1  dyz    Ryd( 4d)     0.00024       3.24272
    21    C    1  dx2y2  Ryd( 3d)     0.00132       1.83908
    22    C    1  dx2y2  Ryd( 4d)     0.00012       3.38530
    23    C    1  dz2    Ryd( 3d)     0.00071       1.66424
    24    C    1  dz2    Ryd( 4d)     0.00014       3.24891
    25    C    1  f(0)   Ryd( 4f)     0.00003       3.67806
    26    C    1  f(C1)  Ryd( 4f)     0.00005       3.80192
    27    C    1  f(S1)  Ryd( 4f)     0.00001       3.44194
    28    C    1  f(C2)  Ryd( 4f)     0.00006       3.78300
    29    C    1  f(S2)  Ryd( 4f)     0.00002       3.64541
    30    C    1  f(C3)  Ryd( 4f)     0.00005       3.74002
    31    C    1  f(S3)  Ryd( 4f)     0.00003       3.72697
 
    32    C    2  S      Cor( 1S)     1.99917     -10.37779
    33    C    2  S      Val( 2S)     0.96083      -0.21375
    34    C    2  S      Ryd( 3S)     0.00085       1.44315
    35    C    2  S      Ryd( 4S)     0.00004       1.78054
    36    C    2  S      Ryd( 5S)     0.00000      21.07007
    37    C    2  px     Val( 2p)     1.05873      -0.05730
    38    C    2  px     Ryd( 3p)     0.00297       1.20716
    39    C    2  px     Ryd( 4p)     0.00022       2.14529
    40    C    2  py     Val( 2p)     1.14842      -0.05803
    41    C    2  py     Ryd( 3p)     0.00392       1.19110
    42    C    2  py     Ryd( 4p)     0.00020       2.61566
    43    C    2  pz     Val( 2p)     0.99518      -0.10923
    44    C    2  pz     Ryd( 3p)     0.00157       0.70933
    45    C    2  pz     Ryd( 4p)     0.00039       1.41754
    46    C    2  dxy    Ryd( 3d)     0.00207       1.91755
    47    C    2  dxy    Ryd( 4d)     0.00059       3.53031
    48    C    2  dxz    Ryd( 3d)     0.00023       1.53968
    49    C    2  dxz    Ryd( 4d)     0.00016       2.96830
    50    C    2  dyz    Ryd( 3d)     0.00035       1.46886
    51    C    2  dyz    Ryd( 4d)     0.00009       2.85281
    52    C    2  dx2y2  Ryd( 3d)     0.00086       2.16338
    53    C    2  dx2y2  Ryd( 4d)     0.00053       3.63355
    54    C    2  dz2    Ryd( 3d)     0.00096       1.66821
    55    C    2  dz2    Ryd( 4d)     0.00004       3.32224
    56    C    2  f(0)   Ryd( 4f)     0.00026       3.36410
    57    C    2  f(C1)  Ryd( 4f)     0.00013       3.70419
    58    C    2  f(S1)  Ryd( 4f)     0.00026       3.57645
    59    C    2  f(C2)  Ryd( 4f)     0.00001       3.46127
    60    C    2  f(S2)  Ryd( 4f)     0.00004       3.47868
    61    C    2  f(C3)  Ryd( 4f)     0.00007       4.24309
    62    C    2  f(S3)  Ryd( 4f)     0.00005       4.19191
 
    63    C    3  S      Cor( 1S)     1.99915     -10.37473
    64    C    3  S      Val( 2S)     0.96865      -0.22080
    65    C    3  S      Ryd( 3S)     0.00072       1.40956
    66    C    3  S      Ryd( 4S)     0.00004       1.93876
    67    C    3  S      Ryd( 5S)     0.00000      21.05450
    68    C    3  px     Val( 2p)     1.09507      -0.06029
    69    C    3  px     Ryd( 3p)     0.00361       1.22622
    70    C    3  px     Ryd( 4p)     0.00028       2.33827
    71    C    3  py     Val( 2p)     1.11834      -0.06194
    72    C    3  py     Ryd( 3p)     0.00352       1.10433
    73    C    3  py     Ryd( 4p)     0.00016       2.42087
    74    C    3  pz     Val( 2p)     1.01534      -0.11078
    75    C    3  pz     Ryd( 3p)     0.00169       0.67205
    76    C    3  pz     Ryd( 4p)     0.00047       1.50524
    77    C    3  dxy    Ryd( 3d)     0.00089       2.10520
    78    C    3  dxy    Ryd( 4d)     0.00074       3.61506
    79    C    3  dxz    Ryd( 3d)     0.00034       1.50639
    80    C    3  dxz    Ryd( 4d)     0.00013       2.87928
    81    C    3  dyz    Ryd( 3d)     0.00031       1.50738
    82    C    3  dyz    Ryd( 4d)     0.00006       2.87340
    83    C    3  dx2y2  Ryd( 3d)     0.00192       1.88834
    84    C    3  dx2y2  Ryd( 4d)     0.00032       3.43722
    85    C    3  dz2    Ryd( 3d)     0.00068       1.72361
    86    C    3  dz2    Ryd( 4d)     0.00005       3.29808
    87    C    3  f(0)   Ryd( 4f)     0.00024       3.34357
    88    C    3  f(C1)  Ryd( 4f)     0.00019       3.59991
    89    C    3  f(S1)  Ryd( 4f)     0.00023       3.58557
    90    C    3  f(C2)  Ryd( 4f)     0.00001       3.51323
    91    C    3  f(S2)  Ryd( 4f)     0.00002       3.41088
    92    C    3  f(C3)  Ryd( 4f)     0.00005       4.30887
    93    C    3  f(S3)  Ryd( 4f)     0.00005       4.08675
 
    94    C    4  S      Cor( 1S)     1.99917     -10.38474
    95    C    4  S      Val( 2S)     0.91762      -0.20571
    96    C    4  S      Ryd( 4S)     0.00074       1.73171
    97    C    4  S      Ryd( 3S)     0.00006       1.43006
    98    C    4  S      Ryd( 5S)     0.00000      21.30547
    99    C    4  px     Val( 2p)     1.02516      -0.04611
   100    C    4  px     Ryd( 3p)     0.00482       1.42076
   101    C    4  px     Ryd( 4p)     0.00018       2.50277
   102    C    4  py     Val( 2p)     1.05679      -0.05424
   103    C    4  py     Ryd( 3p)     0.00337       1.09391
   104    C    4  py     Ryd( 4p)     0.00012       2.67355
   105    C    4  pz     Val( 2p)     0.98491      -0.10049
   106    C    4  pz     Ryd( 3p)     0.00268       0.75248
   107    C    4  pz     Ryd( 4p)     0.00036       1.63416
   108    C    4  dxy    Ryd( 3d)     0.00165       1.96729
   109    C    4  dxy    Ryd( 4d)     0.00076       3.62868
   110    C    4  dxz    Ryd( 3d)     0.00039       1.55514
   111    C    4  dxz    Ryd( 4d)     0.00023       3.15500
   112    C    4  dyz    Ryd( 3d)     0.00021       1.51871
   113    C    4  dyz    Ryd( 4d)     0.00029       3.14369
   114    C    4  dx2y2  Ryd( 3d)     0.00083       2.26010
   115    C    4  dx2y2  Ryd( 4d)     0.00064       3.66932
   116    C    4  dz2    Ryd( 3d)     0.00054       1.98490
   117    C    4  dz2    Ryd( 4d)     0.00006       3.53496
   118    C    4  f(0)   Ryd( 4f)     0.00022       3.46423
   119    C    4  f(C1)  Ryd( 4f)     0.00017       3.57862
   120    C    4  f(S1)  Ryd( 4f)     0.00013       3.63926
   121    C    4  f(C2)  Ryd( 4f)     0.00001       3.55438
   122    C    4  f(S2)  Ryd( 4f)     0.00002       3.58400
   123    C    4  f(C3)  Ryd( 4f)     0.00008       4.37272
   124    C    4  f(S3)  Ryd( 4f)     0.00005       4.32046
 
   125    C    5  S      Cor( 1S)     1.99903     -10.37332
   126    C    5  S      Val( 2S)     0.95785      -0.20860
   127    C    5  S      Ryd( 4S)     0.00096       1.63257
   128    C    5  S      Ryd( 3S)     0.00003       1.47973
   129    C    5  S      Ryd( 5S)     0.00000      21.44132
   130    C    5  px     Val( 2p)     1.06912      -0.05864
   131    C    5  px     Ryd( 3p)     0.00257       1.08684
   132    C    5  px     Ryd( 4p)     0.00084       1.97486
   133    C    5  py     Val( 2p)     1.15994      -0.06374
   134    C    5  py     Ryd( 3p)     0.00361       1.19073
   135    C    5  py     Ryd( 4p)     0.00035       1.73034
   136    C    5  pz     Val( 2p)     1.01988      -0.11189
   137    C    5  pz     Ryd( 3p)     0.00150       0.72469
   138    C    5  pz     Ryd( 4p)     0.00039       1.39398
   139    C    5  dxy    Ryd( 3d)     0.00134       2.03527
   140    C    5  dxy    Ryd( 4d)     0.00033       3.69120
   141    C    5  dxz    Ryd( 3d)     0.00035       1.54914
   142    C    5  dxz    Ryd( 4d)     0.00019       3.06054
   143    C    5  dyz    Ryd( 3d)     0.00033       1.44892
   144    C    5  dyz    Ryd( 4d)     0.00006       2.90190
   145    C    5  dx2y2  Ryd( 3d)     0.00130       2.11428
   146    C    5  dx2y2  Ryd( 4d)     0.00047       3.76755
   147    C    5  dz2    Ryd( 3d)     0.00111       1.76470
   148    C    5  dz2    Ryd( 4d)     0.00002       3.45834
   149    C    5  f(0)   Ryd( 4f)     0.00018       3.42912
   150    C    5  f(C1)  Ryd( 4f)     0.00009       3.82807
   151    C    5  f(S1)  Ryd( 4f)     0.00011       3.65777
   152    C    5  f(C2)  Ryd( 4f)     0.00002       3.49655
   153    C    5  f(S2)  Ryd( 4f)     0.00001       3.51435
   154    C    5  f(C3)  Ryd( 4f)     0.00008       4.31378
   155    C    5  f(S3)  Ryd( 4f)     0.00005       4.16528
 
   156    H    6  S      Val( 1S)     0.78801       0.05359
   157    H    6  S      Ryd( 3S)     0.00047       1.54653
   158    H    6  S      Ryd( 2S)     0.00016       1.52027
   159    H    6  px     Ryd( 2p)     0.00012       2.91243
   160    H    6  py     Ryd( 2p)     0.00040       3.06071
   161    H    6  pz     Ryd( 2p)     0.00010       2.24113
 
   162    H    7  S      Val( 1S)     0.78840       0.05422
   163    H    7  S      Ryd( 3S)     0.00038       1.62073
   164    H    7  S      Ryd( 2S)     0.00018       1.34568
   165    H    7  px     Ryd( 2p)     0.00021       2.93211
   166    H    7  py     Ryd( 2p)     0.00026       2.98932
   167    H    7  pz     Ryd( 2p)     0.00007       2.23366
 
   168    H    8  S      Val( 1S)     0.79229       0.05134
   169    H    8  S      Ryd( 2S)     0.00209       0.60685
   170    H    8  S      Ryd( 3S)     0.00020       2.22165
   171    H    8  px     Ryd( 2p)     0.00008       2.93275
   172    H    8  py     Ryd( 2p)     0.00029       3.08252
   173    H    8  pz     Ryd( 2p)     0.00016       2.26727
 
   174    C    9  S      Cor( 1S)     1.99903     -10.36954
   175    C    9  S      Val( 2S)     0.89652      -0.17291
   176    C    9  S      Ryd( 4S)     0.00089       1.83950
   177    C    9  S      Ryd( 3S)     0.00002       1.62462
   178    C    9  S      Ryd( 5S)     0.00000      21.27312
   179    C    9  px     Val( 2p)     1.05052      -0.04643
   180    C    9  px     Ryd( 3p)     0.00483       1.37153
   181    C    9  px     Ryd( 4p)     0.00029       1.89083
   182    C    9  py     Val( 2p)     1.08881      -0.06433
   183    C    9  py     Ryd( 3p)     0.00376       1.31257
   184    C    9  py     Ryd( 4p)     0.00037       1.81662
   185    C    9  pz     Val( 2p)     1.01532      -0.10237
   186    C    9  pz     Ryd( 3p)     0.00162       0.82189
   187    C    9  pz     Ryd( 4p)     0.00030       1.37936
   188    C    9  dxy    Ryd( 3d)     0.00095       2.59131
   189    C    9  dxy    Ryd( 4d)     0.00051       3.79376
[...]
 0000575,-0.00000597,-0.00000555,0.00000022,-0.00000079,0.00000175,0.00
 000075,-0.00000068,-0.00000066,0.00000058,-0.00000167,-0.00000027,0.00
 000052,0.00000266,-0.00000003,0.00000037,0.00000054,0.00000231,0.00000
 047,-0.00000010,-0.00000153,0.00000074,0.00012778,-0.00019049,-0.00010
 715,0.00013278,-0.00002924,0.00038940,0.00352240,0.00139667,-0.0008647
 0,-0.00058749,-0.00024276,0.00005636,-0.00151737,-0.00010122,0.0010567
 8,0.05261278,-0.03439581,-0.13843731,-0.00351897,0.00177597,0.00358131
 ,0.02165384,-0.01316301,-0.02130563,0.03856054,-0.02513869,0.52879950,
 -0.00087275,-0.00100498,-0.00029408,0.00001538,-0.00001129,-0.00002005
 ,-0.00010710,-0.00007682,0.00001046,0.00002364,0.00033147,0.00034824,-
 0.00010213,-0.00003106,-0.00002939,-0.00002111,-0.00000453,-0.00000795
 ,0.00001395,-0.00000022,0.00001246,0.00000954,0.00001986,-0.00000004,-
 0.00001524,-0.00001868,0.00001248,-0.00000150,0.00001034,-0.00005086,-
 0.00003373,-0.00005379,0.00003131,0.00003461,0.00004599,-0.00001788,0.
 00000542,-0.00001254,0.00000817,-0.00000658,-0.00002586,0.00002278,-0.
 00002843,0.00000326,-0.00001381,0.00001265,0.00001717,-0.00001179,0.00
 000615,0.00000222,0.00000044,-0.00000695,-0.00000257,-0.00000214,0.000
 00186,-0.00000367,0.00000513,0.00000131,0.00000444,0.00000394,-0.00000
 806,-0.00000760,-0.00001319,0.00000581,0.00001304,-0.00000960,-0.00000
 451,0.00000914,0.00000690,-0.00000074,-0.00000423,-0.00000701,0.000006
 91,-0.00000089,-0.00001008,-0.00000381,-0.00000739,0.00000948,-0.00000
 296,-0.00000408,0.00000039,-0.00000689,0.00001135,-0.00000003,-0.00000
 109,-0.00000621,0.00000919,-0.00000543,0.00000326,-0.00000703,0.000007
 06,-0.00000547,0.00000333,-0.00000464,-0.00000253,0.00000401,-0.000008
 60,-0.00000867,0.00000055,0.00000367,-0.00000177,-0.00000153,-0.000010
 54,-0.00001224,0.00000523,0.00002337,0.00002573,-0.00000936,-0.0000115
 2,-0.00001159,0.00000024,-0.00000108,0.00000492,0.00000353,-0.00000183
 ,-0.00000172,0.00000138,-0.00000396,-0.00000036,0.00000016,0.00000547,
 0.00000020,-0.00000054,0.00000068,0.00000532,0.00000007,-0.00000020,-0
 .00000338,0.00000043,-0.00002110,0.00005392,-0.00004699,-0.00001535,-0
 .00001614,0.00008574,-0.00108411,0.00315951,0.00374968,0.00018974,-0.0
 0007216,-0.00001180,0.00040157,0.00012473,0.00000504,-0.01672716,-0.00
 944598,-0.00198540,0.00031288,0.00035013,-0.00054796,0.00081120,-0.000
 15931,0.00020879,-0.26017253,-0.11066409,-0.00655487,0.28260906,0.0007
 0801,0.00069723,-0.00021779,-0.00000210,0.00001252,0.00001042,0.000015
 18,0.00001723,0.00000395,0.00007227,-0.00016065,-0.00018506,0.00003607
 ,0.00002943,0.00000958,0.00000429,0.00000062,-0.00000017,0.00000486,-0
 .00001093,-0.00000459,0.00000023,-0.00000381,-0.00001916,0.00002191,0.
 00000025,0.00000696,-0.00002567,0.00001270,0.00000881,0.00000648,0.000
 00593,0.00000203,-0.00000472,-0.00000438,0.00000076,-0.00000009,0.0000
 0072,-0.00000065,-0.00000116,0.00000129,-0.00000062,0.00000395,0.00000
 198,0.00000091,-0.00000328,-0.00000251,-0.00000108,0.00000042,-0.00000
 023,-0.00000009,0.00000015,-0.00000002,-0.00000058,0.00000105,0.000000
 17,-0.00000034,0.00000154,-0.00000024,-0.00000054,-0.00000024,0.000000
 81,-0.00000029,0.00000264,-0.00000189,0.00000030,0.00001075,0.00000127
 ,-0.00000346,-0.00000266,0.00000099,-0.00000097,-0.00000010,0.00000122
 ,0.00000046,-0.00000099,-0.00000044,0.00000085,0.00000235,0.00000154,0
 .00000058,-0.00000478,-0.00000380,-0.00000272,-0.00000142,-0.00000003,
 0.00000248,-0.00000084,-0.00000102,-0.00000196,0.00000045,0.00000197,-
 0.00000222,-0.00000162,-0.00000108,0.00000278,-0.00000054,-0.00000043,
 -0.00000024,0.00000033,-0.00000039,0.00000060,-0.00000046,-0.00000054,
 0.00000011,0.00000071,0.00000159,-0.00000023,0.00000002,-0.00000108,-0
 .00000011,-0.00000029,0.00000070,0.00000066,-0.00000026,-0.00000015,0.
 00000008,-0.00000052,0.00000009,-0.00000018,0.00000049,0.00000006,-0.0
 0000027,0.00000029,0.00000055,-0.00000026,0.00000011,-0.00000002,-0.00
 000031,-0.00007145,0.00002322,0.00010957,-0.00000571,0.00000882,-0.000
 00502,0.00113226,-0.00105658,-0.00184201,0.00024396,0.00041979,-0.0002
 1533,-0.00010954,-0.00016990,-0.00006467,0.01399175,0.00650817,0.00118
 353,-0.00024158,0.00054173,0.00073812,-0.00063261,0.00029765,0.0004780
 8,-0.11159206,-0.10476651,-0.00298240,0.12044464,0.11000335,0.00138295
 ,0.00060050,0.00049806,-0.00002589,0.00000459,0.00003310,0.00009247,0.
 00006450,0.00001079,0.00005496,-0.00030683,-0.00035698,0.00006201,0.00
 002300,0.00002423,0.00001570,0.00000025,0.00000167,-0.00000003,-0.0000
 1792,-0.00001262,-0.00000356,-0.00001181,-0.00001108,0.00002024,0.0000
 2691,-0.00001528,0.00000245,0.00000502,0.00003558,0.00002261,0.0000314
 3,-0.00001500,-0.00002048,-0.00002655,0.00000978,-0.00000293,0.0000064
 3,-0.00000440,0.00000229,0.00001439,-0.00001173,0.00001772,0.00000011,
 0.00000797,-0.00000961,-0.00001151,0.00000485,-0.00000219,-0.00000142,
 -0.00000035,0.00000342,0.00000106,0.00000044,-0.00000002,0.00000216,-0
 .00000261,0.00000184,-0.00000141,-0.00000292,0.00000335,0.00000319,0.0
 0000691,0.00000024,-0.00000679,0.00000659,0.00000569,-0.00000586,-0.00
 000422,-0.00000070,0.00000307,0.00000342,-0.00000284,0.00000077,0.0000
 0515,0.00000063,0.00000313,-0.00000402,0.00000330,0.00000318,-0.000000
 73,0.00000002,-0.00000751,-0.00000114,0.00000042,0.00000339,-0.0000037
 7,0.00000128,-0.00000267,0.00000379,-0.00000329,0.00000414,-0.00000237
 ,0.00000092,0.00000020,-0.00000099,0.00000352,0.00000379,-0.00000091,-
 0.00000131,0.00000058,0.00000142,0.00000458,0.00000529,-0.00000263,-0.
 00001068,-0.00001110,0.00000439,0.00000555,0.00000467,-0.00000053,0.00
 000032,-0.00000176,-0.00000100,0.00000070,0.00000068,-0.00000040,0.000
 00140,0.00000024,-0.00000021,-0.00000212,0.00000001,0.00000011,-0.0000
 0013,-0.00000210,-0.00000005,0.00000025,0.00000165,-0.00000042,0.00002
 102,-0.00003541,0.00001881,-0.00009615,0.00008495,0.00002806,0.0017559
 1,-0.00280560,-0.00333249,-0.00026817,-0.00016134,-0.00008953,0.000341
 02,-0.00008133,0.00028254,0.02101463,0.01240131,0.00057826,-0.00077205
 ,-0.00001547,0.00082529,-0.00061668,0.00072850,0.00055668,-0.00746907,
 -0.00343264,-0.04705900,0.00487229,0.00501615,0.04874737,-0.00004637,-
 0.00009491,0.00013378,-0.00000087,-0.00000087,0.00000265,0.00001024,0.
 00001609,-0.00000670,-0.00002293,-0.00011143,0.00001738,-0.00001554,-0
 .00000862,-0.00002531,0.00000131,0.00000112,0.00000215,0.00000511,-0.0
 0000049,0.00000369,-0.00000241,0.00000062,0.00002162,0.00000114,-0.000
 00046,0.00000254,-0.00000957,-0.00002355,0.00001201,0.00000048,0.00000
 343,-0.00000812,-0.00000455,-0.00000899,0.00000412,-0.00000065,0.00000
 244,-0.00000161,0.00000255,0.00000279,-0.00000334,0.00000243,-0.000001
 64,0.00000145,0.00000009,-0.00000248,0.00000232,-0.00000101,0.00000006
 ,0.00000068,0.00000121,0.00000069,0.00000096,-0.00000134,0.00000031,-0
 .00000043,-0.00000219,-0.00000023,-0.00000106,0.00000139,0.00000093,0.
 00000268,-0.00000343,0.00000175,0.00000066,-0.00001417,-0.00000456,0.0
 0000412,0.00000444,-0.00000094,0.00000241,-0.00000064,-0.00000128,0.00
 000104,0.00000153,0.00000138,-0.00000193,-0.00000173,-0.00000130,-0.00
 000098,0.00000665,0.00000205,0.00000349,0.00000188,0.00000100,-0.00000
 397,0.00000164,0.00000098,0.00000372,-0.00000159,-0.00000160,0.0000019
 3,0.00000227,0.00000160,-0.00000428,0.00000209,0.00000190,0.00000045,-
 0.00000082,0.00000013,-0.00000034,0.00000244,0.00000269,-0.00000110,-0
 .00000468,-0.00000549,0.00000196,0.00000123,0.00000267,0.00000015,0.00
 000050,-0.00000159,-0.00000139,0.00000050,0.00000041,-0.00000040,0.000
 00093,0.00000014,0.00000020,-0.00000125,0.00000004,0.00000037,-0.00000
 008,-0.00000133,0.00000024,-0.00000011,0.00000082,0.00000024,0.0000887
 3,-0.00023097,-0.00006687,0.00001621,0.00001909,-0.00003005,0.00129663
 ,0.00142896,-0.00093127,-0.00028936,-0.00058939,0.00034926,-0.00007069
 ,-0.00000341,-0.00005252,-0.00411082,0.02070933,-0.00403378,-0.0021875
 7,0.00146887,0.00324971,0.00071149,-0.00079809,-0.00031154,-0.05245645
 ,0.03538921,-0.00735432,0.00528679,-0.02845750,0.00590940,0.05436792,0
 .00002874,0.00043474,-0.00012769,-0.00000345,0.00000342,-0.00000187,0.
 00002773,0.00000148,0.00000475,-0.00002848,-0.00001763,-0.00006505,0.0
 0005658,0.00001586,0.00002701,0.00000391,-0.00000005,0.00000109,-0.000
 01149,0.00000555,-0.00000747,-0.00000251,-0.00000671,-0.00001237,0.000
 00328,0.00000554,-0.00000318,-0.00000309,0.00000415,0.00000455,0.00001
 688,0.00002087,-0.00000491,-0.00001327,-0.00001127,0.00000335,-0.00000
 088,0.00000207,-0.00000095,-0.00000049,0.00000840,-0.00000658,0.000010
 06,0.00000068,0.00000442,-0.00000745,-0.00000527,0.00000290,-0.0000022
 3,-0.00000062,-0.00000161,0.00000158,0.00000004,-0.00000002,0.00000119
 ,0.00000164,-0.00000232,0.00000531,0.00000106,-0.00000362,0.00000269,0
 .00000102,0.00000525,-0.00000264,-0.00000626,0.00000094,0.00001449,-0.
 00000038,-0.00000686,-0.00000002,0.00000097,0.00000251,-0.00000218,0.0
 0000277,0.00000369,-0.00000120,0.00000230,-0.00000335,0.00000254,0.000
 00254,0.00000059,-0.00000213,-0.00000830,-0.00000014,-0.00000108,0.000
 00163,-0.00000158,-0.00000019,-0.00000529,0.00000084,-0.00000310,0.000
 00734,-0.00000375,-0.00000135,-0.00000052,0.00000102,0.00000158,0.0000
 0211,-0.00000136,-0.00000087,0.00000028,0.00000138,0.00000280,0.000002
 40,-0.00000139,-0.00000613,-0.00000573,0.00000207,0.00000420,0.0000022
 7,-0.00000063,0.,-0.00000088,0.00000022,0.00000050,0.00000038,-0.00000
 003,0.00000037,0.,-0.00000025,-0.00000125,0.00000038,-0.00000014,-0.00
 000022,-0.00000127,-0.00000002,0.00000029,0.00000138,-0.00000059,-0.00
 022547,0.00007523,0.00014219,-0.00000041,-0.00003633,-0.00000811,-0.00
 082760,0.00066744,0.00045453,0.00077746,0.00049956,-0.00006224,0.00005
 529,-0.00004569,-0.00007315,0.00198328,-0.01323714,0.00182109,0.001441
 49,0.00058679,-0.00238596,-0.00026050,0.00039155,-0.00033809,0.0360731
 6,-0.29983271,0.04722214,0.00233087,-0.01352941,0.00274540,-0.04150114
 ,0.32622400,-0.00010236,-0.00011333,-0.00004667,-0.00000307,-0.0000010
 7,-0.00000611,-0.00000995,-0.00000361,-0.00001033,-0.00003548,0.000116
 68,-0.00001081,0.00003871,-0.00000655,0.00002441,0.00000019,0.00000136
 ,0.00000009,-0.00000463,-0.00000015,-0.00000241,0.00000241,0.00000539,
 -0.00000430,-0.00000325,-0.00000100,-0.00000057,-0.00000056,0.00000493
 ,-0.00001437,0.00000314,0.00000013,-0.00000003,-0.00000146,0.00000072,
 -0.00000078,-0.00000055,-0.00000020,-0.00000116,-0.00000049,-0.0000001
 6,-0.00000089,0.00000036,-0.00000025,0.00000007,-0.00000074,-0.0000009
 6,0.00000004,-0.00000044,0.00000067,0.00000028,-0.00000032,0.00000034,
 0.00000026,0.00000025,0.00000070,0.00000026,0.00000769,0.00000480,-0.0
 0000225,-0.00000042,-0.00000244,0.00000245,0.00000078,0.00000091,0.000
 00028,0.00000231,0.00000108,-0.00000102,0.00000076,-0.00000174,0.00000
 165,0.00000074,-0.00000073,-0.00000025,-0.00000136,0.00000061,-0.00000
 108,-0.00000529,-0.00000236,-0.00000038,0.00000244,0.00000179,0.000005
 86,-0.00000082,-0.00000040,-0.00000157,-0.00000241,-0.00000303,0.00000
 079,0.00000080,0.00000247,0.00000069,-0.00000174,-0.00000065,-0.000001
 19,0.,-0.00000009,-0.00000015,-0.00000005,-0.00000004,-0.00000018,0.00
 000004,0.00000007,-0.00000024,-0.00000003,-0.00000010,-0.00000022,-0.0
 0000058,-0.00000004,-0.00000049,0.00000012,-0.00000013,-0.00000047,0.0
 0000002,0.00000006,0.00000019,0.00000011,0.00000004,0.00000016,-0.0000
 0002,0.00000001,0.00000024,0.00000022,0.00000016,0.00000073,-0.0000000
 5,-0.00000005,0.00000042,-0.00006255,0.00014903,-0.00000691,-0.0000004
 5,-0.00003671,-0.00003729,-0.00114130,-0.00045221,0.00068133,0.0000637
 0,0.00053676,0.00010835,0.00004934,0.00017049,-0.00003403,0.00399414,-
 0.02448227,0.00406486,0.00363701,-0.00202583,-0.00278977,-0.00095447,0
 .00013183,0.00092772,-0.00759873,0.04802899,-0.05575656,0.00023736,-0.
 00176400,-0.00094982,0.00484503,-0.04985592,0.05858479,0.00005508,0.00
 008922,0.00014133,-0.00002207,-0.00000090,-0.00000286,0.00001423,-0.00
 001753,0.00000492,-0.00007482,-0.00002434,-0.00013418,0.00001789,0.000
 00690,0.00000388,0.00000096,-0.00000066,0.00000187,-0.00000947,0.00001
 065,-0.00000049,0.00000060,0.00000064,0.00000106,0.00000047,0.00001058
 ,-0.00000799,0.00000614,-0.00000109,0.00001248,0.00000592,0.00001227,-
 0.00000894,-0.00001007,-0.00001205,0.00000462,-0.00000078,0.00000301,-
 0.00000125,0.00000190,0.00000585,-0.00000509,0.00000626,-0.00000097,0.
 00000311,-0.00000281,-0.00000346,0.00000283,-0.00000156,-0.00000077,-0
 .00000012,0.00000198,0.00000060,0.00000052,-0.00000083,0.00000052,-0.0
 0000113,-0.00000100,-0.00000156,-0.00000032,0.00000231,0.00000281,0.00
 000258,-0.00000229,-0.00000331,0.00000189,-0.00000142,-0.00000245,-0.0
 0000170,-0.00000051,0.00000147,0.00000168,-0.00000119,-0.00000006,0.00
 000214,0.00000125,0.00000152,-0.00000242,0.00000086,0.00000095,0.00000
 012,0.00000235,-0.00000168,-0.00000008,-0.00000003,0.00000121,-0.00000
 182,0.00000146,0.00000091,0.00000131,-0.00000157,-0.00000023,-0.000000
 59,0.00000198,0.00000076,-0.00000147,0.00000229,0.00000221,-0.00000005
 ,-0.00000098,0.00000039,0.00000049,0.00000293,0.00000318,-0.00000109,-
 0.00000586,-0.00000663,0.00000261,0.00000282,0.00000308,0.00000022,0.0
 0000035,-0.00000121,-0.00000060,0.00000049,0.00000046,-0.00000050,0.00
 000103,0.00000006,-0.00000018,-0.00000149,-0.00000007,-0.00000005,-0.0
 0000026,-0.00000145,-0.00000036,-0.00000006,0.00000083,-0.00000034,0.0
 0002218,-0.00000241,0.00000680,-0.00009752,-0.00001444,-0.00019265,0.0
 0196857,-0.00004749,0.00086434,-0.00005730,-0.00008436,-0.00007424,-0.
 00023867,0.00015390,-0.00045201,0.00773330,-0.00291353,0.02060074,0.00
 080928,-0.00039937,-0.00091344,-0.00234812,0.00159228,0.00347065,-0.08
 705967,0.01026450,-0.09561423,-0.01049712,0.00445500,-0.02631719,-0.00
 256901,0.00006456,-0.00295411,0.09234162,-0.00012609,-0.00005786,-0.00
 003266,-0.00000216,-0.00001284,-0.00000095,0.00002109,0.00002882,-0.00
 001952,-0.00000928,-0.00001833,0.00006366,0.00000337,-0.00001315,0.000
 00309,0.00000214,0.00000335,0.00000152,0.00000090,0.00000384,0.0000035
 6,-0.00000179,-0.00000257,0.00000148,-0.00000304,0.00000169,-0.0000027
 3,0.00000050,-0.00000871,0.00000396,0.00000393,0.00000425,-0.00000300,
 -0.00000416,-0.00000533,0.00000206,-0.00000083,0.00000114,-0.00000201,
 0.00000076,0.00000174,-0.00000297,0.00000233,-0.00000086,0.00000114,-0
 .00000137,-0.00000211,0.00000144,-0.00000121,0.00000083,0.00000051,0.0
 0000039,0.00000068,0.00000072,-0.00000022,0.00000067,-0.00000041,0.000
 00212,0.00000180,-0.00000179,0.00000062,-0.00000059,0.00000257,-0.0000
 0242,-0.00000050,0.00000105,0.00000093,0.00000107,-0.00000041,0.000002
 50,-0.00000215,0.00000144,-0.00000093,-0.00000001,0.00000076,0.0000000
 3,0.00000130,-0.00000142,-0.00000341,-0.00000186,0.00000017,0.00000363
 ,-0.00000060,0.00000405,-0.00000012,0.00000022,-0.00000204,0.00000007,
 -0.00000230,0.00000084,-0.00000070,0.00000218,-0.00000010,-0.00000035,
 0.00000052,-0.00000116,0.00000117,0.00000104,0.00000024,-0.00000060,-0
 .00000003,-0.00000024,0.00000143,0.00000162,-0.00000080,-0.00000284,-0
 .00000304,0.00000086,0.00000065,0.00000133,-0.00000019,0.00000020,-0.0
 0000101,-0.00000112,0.00000029,0.00000029,-0.00000015,0.00000057,0.000
 00012,0.00000020,-0.00000073,0.00000004,0.00000034,0.00000021,-0.00000
 065,0.00000055,-0.00000005,0.00000054,0.00000037,0.00001409,-0.0000430
 1,-0.00003389,-0.00000948,-0.00002969,0.00005739,-0.00043847,0.0000354
 3,0.00053053,0.00010236,-0.00003035,0.00011566,0.00004220,0.00025966,0
 .00026678,-0.00556222,0.00099812,-0.01384248,-0.00082200,0.00031351,0.
 00015202,0.00209526,-0.00030779,-0.00219581,0.01033796,-0.05034073,0.0
 2615838,-0.00528973,0.00112245,-0.01484761,0.01279079,-0.00222641,0.02
 959598,-0.01314828,0.05032423,0.00028394,-0.00008903,0.00034564,0.0000
 1289,-0.00000707,0.00002178,0.00004009,0.00006111,-0.00000623,0.000032
 58,-0.00005354,0.00003517,0.00000399,0.00000644,-0.00001054,0.00001297
 ,0.00000040,-0.00000108,0.00000530,-0.00001999,-0.00000876,-0.00000592
 ,-0.00001380,0.00000865,0.00000959,0.00000748,-0.00000073,0.00000655,-
 0.00000531,0.00000559,-0.00000247,0.00000830,-0.00000564,-0.00000179,-
 0.00000867,0.00000580,-0.00000124,0.00000422,-0.00000117,0.00000252,0.
 00000357,-0.00000057,0.00000300,-0.00000008,0.00000163,0.00000037,-0.0
 0000101,0.00000275,0.00000102,-0.00000235,-0.00000059,0.00000187,0.000
 00020,-0.00000044,-0.00000093,-0.00000104,-0.00000057,-0.00000979,-0.0
 0000542,0.00000411,0.00000043,0.00000001,-0.00000252,0.00000304,-0.000
 00337,0.00000270,-0.00000169,-0.00000165,0.00000046,-0.00000041,0.0000
 0171,-0.00000207,-0.00000266,0.00000153,0.00000111,0.00000232,0.000000
 55,0.00000040,0.00000475,0.00000352,0.00000095,-0.00000120,-0.00000265
 ,-0.00000541,0.00000099,0.00000028,0.00000133,0.00000500,0.00000188,-0
 .00000146,-0.00000103,-0.00000193,-0.00000032,0.00000252,0.00000165,0.
 00000117,0.00000096,0.00000091,-0.00000038,-0.00000029,0.00000036,0.00
 000095,0.00000140,0.00000157,0.00000005,-0.00000194,-0.00000329,0.0000
 0166,0.00000175,0.00000136,0.00000062,0.00000033,-0.00000012,0.0000007
 9,0.00000009,0.00000007,-0.00000033,0.00000036,-0.00000002,-0.00000055
 ,-0.00000077,-0.00000003,-0.00000071,-0.00000051,-0.00000067,-0.000001
 06,-0.00000007,0.00000013,-0.00000078,-0.00002725,-0.00000612,-0.00003
 545,-0.00018411,0.00005475,0.00028424,-0.00151808,0.00016567,0.0006287
 0,0.00007883,-0.00000888,-0.00006110,0.00107136,0.00026563,0.00029506,
 -0.00841420,0.00223239,-0.02202013,-0.00016080,-0.00025609,0.00090244,
 0.00354672,-0.00232487,-0.00170775,-0.09461279,0.02570244,-0.27080606,
 -0.00000582,-0.00026047,0.00019194,-0.00174111,0.00052925,-0.00472365,
 0.10155932,-0.02597987,0.29666036\\0.00000273,-0.00000126,-0.00000239,
 -0.00000142,-0.00000058,-0.00000060,0.00000246,-0.00000250,0.00000300,
 -0.00000041,0.00000249,-0.00000287,-0.00000474,-0.00000329,0.00000142,
 -0.00000038,-0.00000018,-0.00000015,0.00000081,0.00000137,0.00000001,0
 .00000116,0.00000017,0.00000139,0.00000319,0.00000283,-0.00000058,0.00
 000488,-0.00000109,-0.00000213,-0.00000097,-0.00000666,-0.00000222,-0.
 00000628,0.00000133,-0.00000553,0.00000605,0.00000298,0.00000051,-0.00
 000135,-0.00000805,0.00000404,-0.00000277,0.00000634,-0.00000561,0.000
 00635,0.00000282,0.00000157,-0.00000021,0.00000031,-0.00000075,-0.0000
 0133,-0.00000033,-0.00000065,-0.00000070,-0.00000205,0.00000071,0.0000
 0384,0.00000280,0.00000118,0.00000228,-0.00000633,-0.00001513,-0.00001
 376,0.00001793,0.00002643,0.00001452,-0.00000955,-0.00000984,-0.000007
 61,-0.00000107,0.00000089,-0.00000181,0.00000145,0.00000110,0.00000032
 ,-0.00000022,0.00000169,-0.00000204,0.00000008,0.00000062,-0.00000285,
 -0.00000115,0.00000048,-0.00000122,-0.00000051,0.00000099,-0.00000187,
 -0.00000186,0.00000107,0.00000180,0.00000041,0.00000005,0.00000185,0.0
 0000101,-0.00000107,-0.00000167,-0.00000212,-0.00000030,0.00000261,0.0
 0000092,-0.00000160,-0.00000183,-0.00000068,0.00000064,0.00000075,-0.0
 0000231,-0.00000089,-0.00000135,0.00000009,-0.00000084,0.00000032,0.00
 000292,-0.00000150,0.00000025,-0.00000014,-0.00000097,-0.00000094,0.00
 000053,-0.00000110,0.00000055,0.00000124,-0.00000150,0.00000147,0.0000
 0028,-0.00000036,0.00000050,-0.00000093,-0.00000067,-0.00000046,0.0000
 0086,-0.00000033,-0.00000023,-0.00000114,0.00000154,-0.00000132,0.0000
 0405,0.00000461,0.00000057,-0.00000152,0.00000024,0.00000005,-0.000000
 19,-0.00000086,0.00000031,-0.00000108,-0.00000038,-0.00000028,0.000000
 85,0.00000070,0.00000013,-0.00000009,0.00000162,0.00000101,0.00000038,
 0.00000083,-0.00000065,0.00000014,0.00000141,-0.00000015,0.,0.00000118
 ,-0.00000015,0.00000032,0.00000091\\\@
 The archive entry for this job was punched.


 E PUR SI MUOVE    -- GALILEO GALILEI
 Job cpu time:       9 days  7 hours 50 minutes 58.8 seconds.
 Elapsed time:       0 days  7 hours  4 minutes 51.3 seconds.
 File lengths (MBytes):  RWF=   3675 Int=      0 D2E=      0 Chk=     81 Scr=      1
 Normal termination of Gaussian 16 at Fri Nov  3 08:42:30 2023.
