 Entering Gaussian System, Link 0=g16
 Input=ph_fluorene_cp_methyl_idp_1_1_m062x.com
 Output=ph_fluorene_cp_methyl_idp_1_1_m062x.log
 Initial command:
 /arc/software/Gaussian/g16.c01/l1.exe "/tmp/Gau-105651.inp" -scrdir="/tmp/"
 Entering Link 1 = /arc/software/Gaussian/g16.c01/l1.exe PID=    105652.
  
 Copyright (c) 1988-2019, Gaussian, Inc.  All Rights Reserved.
  
 This is part of the Gaussian(R) 16 program.  It is based on
 the Gaussian(R) 09 system (copyright 2009, Gaussian, Inc.),
 the Gaussian(R) 03 system (copyright 2003, Gaussian, Inc.),
 the Gaussian(R) 98 system (copyright 1998, Gaussian, Inc.),
 the Gaussian(R) 94 system (copyright 1995, Gaussian, Inc.),
 the Gaussian 92(TM) system (copyright 1992, Gaussian, Inc.),
 the Gaussian 90(TM) system (copyright 1990, Gaussian, Inc.),
 the Gaussian 88(TM) system (copyright 1988, Gaussian, Inc.),
 the Gaussian 86(TM) system (copyright 1986, Carnegie Mellon
 University), and the Gaussian 82(TM) system (copyright 1983,
 Carnegie Mellon University). Gaussian is a federally registered
 trademark of Gaussian, Inc.
  
 This software contains proprietary and confidential information,
 including trade secrets, belonging to Gaussian, Inc.
  
 This software is provided under written license and may be
 used, copied, transmitted, or stored only in accord with that
 written license.
  
 The following legend is applicable only to US Government
 contracts under FAR:
  
                    RESTRICTED RIGHTS LEGEND
  
 Use, reproduction and disclosure by the US Government is
 subject to restrictions as set forth in subparagraphs (a)
 and (c) of the Commercial Computer Software - Restricted
 Rights clause in FAR 52.227-19.
  
 Gaussian, Inc.
 340 Quinnipiac St., Bldg. 40, Wallingford CT 06492
  
  
 ---------------------------------------------------------------
 Warning -- This program may not be used in any manner that
 competes with the business of Gaussian, Inc. or will provide
 assistance to any competitor of Gaussian, Inc.  The licensee
 of this program is prohibited from giving any competitor of
 Gaussian, Inc. access to this program.  By using this program,
 the user acknowledges that Gaussian, Inc. is engaged in the
 business of creating and licensing software in the field of
 computational chemistry and represents and warrants to the
 licensee that it is not a competitor of Gaussian, Inc. and that
 it will not use this program in any manner prohibited above.
 ---------------------------------------------------------------
  

 Cite this work as:
 Gaussian 16, Revision C.01,
 M. J. Frisch, G. W. Trucks, H. B. Schlegel, G. E. Scuseria, 
 M. A. Robb, J. R. Cheeseman, G. Scalmani, V. Barone, 
 G. A. Petersson, H. Nakatsuji, X. Li, M. Caricato, A. V. Marenich, 
 J. Bloino, B. G. Janesko, R. Gomperts, B. Mennucci, H. P. Hratchian, 
 J. V. Ortiz, A. F. Izmaylov, J. L. Sonnenberg, D. Williams-Young, 
 F. Ding, F. Lipparini, F. Egidi, J. Goings, B. Peng, A. Petrone, 
 T. Henderson, D. Ranasinghe, V. G. Zakrzewski, J. Gao, N. Rega, 
 G. Zheng, W. Liang, M. Hada, M. Ehara, K. Toyota, R. Fukuda, 
 J. Hasegawa, M. Ishida, T. Nakajima, Y. Honda, O. Kitao, H. Nakai, 
 T. Vreven, K. Throssell, J. A. Montgomery, Jr., J. E. Peralta, 
 F. Ogliaro, M. J. Bearpark, J. J. Heyd, E. N. Brothers, K. N. Kudin, 
 V. N. Staroverov, T. A. Keith, R. Kobayashi, J. Normand, 
 K. Raghavachari, A. P. Rendell, J. C. Burant, S. S. Iyengar, 
 J. Tomasi, M. Cossi, J. M. Millam, M. Klene, C. Adamo, R. Cammi, 
 J. W. Ochterski, R. L. Martin, K. Morokuma, O. Farkas, 
 J. B. Foresman, and D. J. Fox, Gaussian, Inc., Wallingford CT, 2019.
 
 ******************************************
 Gaussian 16:  ES64L-G16RevC.01  3-Jul-2019
                 1-Nov-2023 
 ******************************************
 %nprocshared=32
 Will use up to   32 processors via shared memory.
 %mem=8000MB
 %chk=ph_fluorene_cp_methyl_idp_1_1_m062x.chk
 -----------------------------------------
 # opt freq=noraman m062x def2tzvp pop=nbo
 -----------------------------------------
 1/18=20,19=15,26=3,38=1/1,3;
 2/9=110,12=2,17=6,18=5,40=1/2;
 3/5=44,7=101,11=2,25=1,30=1,71=1,74=-55/1,2,3;
 4//1;
 5/5=2,38=5/2;
 6/7=2,8=2,9=2,10=2,28=1,40=1/1,7;
 7//1,2,3,16;
 1/18=20,19=15,26=3/3(2);
 2/9=110/2;
 99//99;
 2/9=110/2;
 3/5=44,7=101,11=2,25=1,30=1,71=1,74=-55/1,2,3;
 4/5=5,16=3,69=1/1;
 5/5=2,38=5/2;
 7//1,2,3,16;
 1/18=20,19=15,26=3/3(-5);
 2/9=110/2;
 6/7=2,8=2,9=2,10=2,19=2,28=1,40=1/1,7;
 99/9=1/99;
 ------------
 Structure697
 ------------
 Symbolic Z-matrix:
 Charge =  0 Multiplicity = 1
 C                     2.7177   -9.2143    2.5577 
 C                     1.0991   -6.1173    4.08 
 C                     2.008    -6.9492    3.425 
 C                     1.7235   -8.3071    3.257 
 C                     0.5269   -8.8301    3.756 
 H                     1.3284   -5.0696    4.2022 
 H                     2.9313   -6.5343    3.0482 
 H                     0.3109   -9.8803    3.6295 
 C                    -0.0952   -6.6473    4.5708 
 C                    -0.3882   -8.0005    4.4135 
 C                    -2.1711   -6.9814    5.558 
 C                    -1.2086   -6.0121    5.2863 
 C                    -1.4003   -4.6907    5.6866 
 C                    -2.5661   -4.3368    6.3654 
 C                    -3.5535   -5.2901    6.6523 
 C                    -3.3365   -6.6129    6.239 
 H                    -0.6577   -3.9368    5.4742 
 H                    -2.7069   -3.3068    6.6569 
 H                    -4.0794   -7.3605    6.4653 
 C                    -3.0752   -10.0697   6.2027 
 C                    -1.6742   -9.4467    6.1091 
 C                    -1.7393   -8.3491    5.0276 
 C                    -2.7377   -8.9777    4.0342 
 C                    -3.7629   -9.7639    4.8649 
 H                    -0.9618   -10.2187   5.8141 
 H                    -1.3278   -9.057     7.0677 
 H                    -3.2069   -8.2278    3.3953 
 H                    -2.2164   -9.6678    3.3688 
 H                    -3.6345   -9.6291    7.0296 
 H                    -3.0194   -11.1425   6.3944 
 H                    -4.0745   -10.6747   4.351 
 H                    -4.6622   -9.1672    5.0254 
 C                    -7.1416   -4.1936    8.7353 
 C                    -7.2      -5.1206    7.6984 
 C                    -6.0339   -5.4751    7.0244 
 C                    -4.8015   -4.9084    7.3768 
 C                    -4.7642   -3.9765    8.4228 
 C                    -5.9272   -3.6196    9.101 
 H                    -8.0451   -3.9175    9.2598 
 H                    -8.1452   -5.5607    7.4152 
 H                    -6.0931   -6.1849    6.2124 
 H                    -3.8255   -3.5352    8.7239 
 H                    -5.8857   -2.9033    9.9087 
 H                     2.7035   -10.2134   2.9948 
 H                     2.481    -9.2951    1.4966 
 H                     3.7366   -8.841     2.6666 
 

 GradGradGradGradGradGradGradGradGradGradGradGradGradGradGradGradGradGrad
 Berny optimization.
 Initialization pass.
                           ----------------------------
                           !    Initial Parameters    !
                           ! (Angstroms and Degrees)  !
 --------------------------                            --------------------------
 ! Name  Definition              Value          Derivative Info.                !
 --------------------------------------------------------------------------------
 ! R1    R(1,4)                  1.5167         estimate D2E/DX2                !
 ! R2    R(1,44)                 1.0906         estimate D2E/DX2                !
 ! R3    R(1,45)                 1.0902         estimate D2E/DX2                !
 ! R4    R(1,46)                 1.0906         estimate D2E/DX2                !
 ! R5    R(2,3)                  1.3954         estimate D2E/DX2                !
 ! R6    R(2,6)                  1.0794         estimate D2E/DX2                !
 ! R7    R(2,9)                  1.3958         estimate D2E/DX2                !
 ! R8    R(3,4)                  1.3975         estimate D2E/DX2                !
 ! R9    R(3,7)                  1.0801         estimate D2E/DX2                !
 ! R10   R(4,5)                  1.398          estimate D2E/DX2                !
 ! R11   R(5,8)                  1.0796         estimate D2E/DX2                !
 ! R12   R(5,10)                 1.3993         estimate D2E/DX2                !
 ! R13   R(9,10)                 1.3935         estimate D2E/DX2                !
 ! R14   R(9,12)                 1.468          estimate D2E/DX2                !
 ! R15   R(10,22)                1.5245         estimate D2E/DX2                !
 ! R16   R(11,12)                1.3928         estimate D2E/DX2                !
 ! R17   R(11,16)                1.3992         estimate D2E/DX2                !
 ! R18   R(11,22)                1.5292         estimate D2E/DX2                !
 ! R19   R(12,13)                1.3939         estimate D2E/DX2                !
 ! R20   R(13,14)                1.3947         estimate D2E/DX2                !
 ! R21   R(13,17)                1.0793         estimate D2E/DX2                !
 ! R22   R(14,15)                1.4022         estimate D2E/DX2                !
 ! R23   R(14,18)                1.0797         estimate D2E/DX2                !
 ! R24   R(15,16)                1.4027         estimate D2E/DX2                !
 ! R25   R(15,36)                1.4927         estimate D2E/DX2                !
 ! R26   R(16,19)                1.078          estimate D2E/DX2                !
 ! R27   R(20,21)                1.5361         estimate D2E/DX2                !
 ! R28   R(20,24)                1.535          estimate D2E/DX2                !
 ! R29   R(20,29)                1.0912         estimate D2E/DX2                !
 ! R30   R(20,30)                1.0912         estimate D2E/DX2                !
 ! R31   R(21,22)                1.5423         estimate D2E/DX2                !
 ! R32   R(21,25)                1.0911         estimate D2E/DX2                !
 ! R33   R(21,26)                1.0912         estimate D2E/DX2                !
 ! R34   R(22,23)                1.5423         estimate D2E/DX2                !
 ! R35   R(23,24)                1.536          estimate D2E/DX2                !
 ! R36   R(23,27)                1.0912         estimate D2E/DX2                !
 ! R37   R(23,28)                1.0912         estimate D2E/DX2                !
 ! R38   R(24,31)                1.0912         estimate D2E/DX2                !
 ! R39   R(24,32)                1.0911         estimate D2E/DX2                !
 ! R40   R(33,34)                1.3921         estimate D2E/DX2                !
 ! R41   R(33,38)                1.3921         estimate D2E/DX2                !
 ! R42   R(33,39)                1.0806         estimate D2E/DX2                !
 ! R43   R(34,35)                1.3927         estimate D2E/DX2                !
 ! R44   R(34,40)                1.0804         estimate D2E/DX2                !
 ! R45   R(35,36)                1.4015         estimate D2E/DX2                !
 ! R46   R(35,41)                1.0801         estimate D2E/DX2                !
 ! R47   R(36,37)                1.4014         estimate D2E/DX2                !
 ! R48   R(37,38)                1.3928         estimate D2E/DX2                !
 ! R49   R(37,42)                1.0801         estimate D2E/DX2                !
 ! R50   R(38,43)                1.0804         estimate D2E/DX2                !
 ! A1    A(4,1,44)             110.77           estimate D2E/DX2                !
 ! A2    A(4,1,45)             110.5345         estimate D2E/DX2                !
 ! A3    A(4,1,46)             111.2004         estimate D2E/DX2                !
 ! A4    A(44,1,45)            108.6246         estimate D2E/DX2                !
 ! A5    A(44,1,46)            106.6015         estimate D2E/DX2                !
 ! A6    A(45,1,46)            108.9905         estimate D2E/DX2                !
 ! A7    A(3,2,6)              119.5652         estimate D2E/DX2                !
 ! A8    A(3,2,9)              119.7366         estimate D2E/DX2                !
 ! A9    A(6,2,9)              120.6981         estimate D2E/DX2                !
 ! A10   A(2,3,4)              120.205          estimate D2E/DX2                !
 ! A11   A(2,3,7)              119.4417         estimate D2E/DX2                !
 ! A12   A(4,3,7)              120.3532         estimate D2E/DX2                !
 ! A13   A(1,4,3)              120.2091         estimate D2E/DX2                !
 ! A14   A(1,4,5)              120.1236         estimate D2E/DX2                !
 ! A15   A(3,4,5)              119.6593         estimate D2E/DX2                !
 ! A16   A(4,5,8)              119.5603         estimate D2E/DX2                !
 ! A17   A(4,5,10)             120.3774         estimate D2E/DX2                !
 ! A18   A(8,5,10)             120.0622         estimate D2E/DX2                !
 ! A19   A(2,9,10)             120.5955         estimate D2E/DX2                !
 ! A20   A(2,9,12)             130.9993         estimate D2E/DX2                !
 ! A21   A(10,9,12)            108.4051         estimate D2E/DX2                !
 ! A22   A(5,10,9)             119.4248         estimate D2E/DX2                !
 ! A23   A(5,10,22)            129.2945         estimate D2E/DX2                !
 ! A24   A(9,10,22)            111.2806         estimate D2E/DX2                !
 ! A25   A(12,11,16)           119.1608         estimate D2E/DX2                !
 ! A26   A(12,11,22)           111.0794         estimate D2E/DX2                !
 ! A27   A(16,11,22)           129.7597         estimate D2E/DX2                !
 ! A28   A(9,12,11)            108.547          estimate D2E/DX2                !
 ! A29   A(9,12,13)            130.8772         estimate D2E/DX2                !
 ! A30   A(11,12,13)           120.5758         estimate D2E/DX2                !
 ! A31   A(12,13,14)           119.6875         estimate D2E/DX2                !
 ! A32   A(12,13,17)           120.7312         estimate D2E/DX2                !
 ! A33   A(14,13,17)           119.581          estimate D2E/DX2                !
 ! A34   A(13,14,15)           121.0446         estimate D2E/DX2                !
 ! A35   A(13,14,18)           118.8483         estimate D2E/DX2                !
 ! A36   A(15,14,18)           120.1007         estimate D2E/DX2                !
 ! A37   A(14,15,16)           118.1582         estimate D2E/DX2                !
 ! A38   A(14,15,36)           120.9456         estimate D2E/DX2                !
 ! A39   A(16,15,36)           120.8962         estimate D2E/DX2                !
 ! A40   A(11,16,15)           121.3731         estimate D2E/DX2                !
 ! A41   A(11,16,19)           119.5736         estimate D2E/DX2                !
 ! A42   A(15,16,19)           119.0475         estimate D2E/DX2                !
 ! A43   A(21,20,24)           105.9445         estimate D2E/DX2                !
 ! A44   A(21,20,29)           110.4803         estimate D2E/DX2                !
 ! A45   A(21,20,30)           111.2714         estimate D2E/DX2                !
 ! A46   A(24,20,29)           110.5101         estimate D2E/DX2                !
 ! A47   A(24,20,30)           111.8314         estimate D2E/DX2                !
 ! A48   A(29,20,30)           106.8607         estimate D2E/DX2                !
 ! A49   A(20,21,22)           107.0294         estimate D2E/DX2                !
 ! A50   A(20,21,25)           108.9656         estimate D2E/DX2                !
 ! A51   A(20,21,26)           112.3849         estimate D2E/DX2                !
 ! A52   A(22,21,25)           109.9686         estimate D2E/DX2                !
 ! A53   A(22,21,26)           112.0401         estimate D2E/DX2                !
 ! A54   A(25,21,26)           106.4347         estimate D2E/DX2                !
 ! A55   A(10,22,11)           100.6878         estimate D2E/DX2                !
 ! A56   A(10,22,21)           114.0666         estimate D2E/DX2                !
 ! A57   A(10,22,23)           114.0444         estimate D2E/DX2                !
 ! A58   A(11,22,21)           113.9048         estimate D2E/DX2                !
 ! A59   A(11,22,23)           113.9001         estimate D2E/DX2                !
 ! A60   A(21,22,23)           100.8903         estimate D2E/DX2                !
 ! A61   A(22,23,24)           106.9981         estimate D2E/DX2                !
 ! A62   A(22,23,27)           112.0475         estimate D2E/DX2                !
 ! A63   A(22,23,28)           109.9534         estimate D2E/DX2                !
 ! A64   A(24,23,27)           112.422          estimate D2E/DX2                !
 ! A65   A(24,23,28)           108.9621         estimate D2E/DX2                !
 ! A66   A(27,23,28)           106.4394         estimate D2E/DX2                !
 ! A67   A(20,24,23)           105.92           estimate D2E/DX2                !
 ! A68   A(20,24,31)           111.8451         estimate D2E/DX2                !
 ! A69   A(20,24,32)           110.4875         estimate D2E/DX2                !
 ! A70   A(23,24,31)           111.2924         estimate D2E/DX2                !
 ! A71   A(23,24,32)           110.4722         estimate D2E/DX2                !
 ! A72   A(31,24,32)           106.8804         estimate D2E/DX2                !
 ! A73   A(34,33,38)           120.4531         estimate D2E/DX2                !
 ! A74   A(34,33,39)           119.7763         estimate D2E/DX2                !
 ! A75   A(38,33,39)           119.7706         estimate D2E/DX2                !
 ! A76   A(33,34,35)           119.6588         estimate D2E/DX2                !
 ! A77   A(33,34,40)           120.2118         estimate D2E/DX2                !
 ! A78   A(35,34,40)           120.1292         estimate D2E/DX2                !
 ! A79   A(34,35,36)           120.7737         estimate D2E/DX2                !
 ! A80   A(34,35,41)           119.0245         estimate D2E/DX2                !
 ! A81   A(36,35,41)           120.1954         estimate D2E/DX2                !
 ! A82   A(15,36,35)           120.6483         estimate D2E/DX2                !
 ! A83   A(15,36,37)           120.6682         estimate D2E/DX2                !
 ! A84   A(35,36,37)           118.6836         estimate D2E/DX2                !
 ! A85   A(36,37,38)           120.7714         estimate D2E/DX2                !
 ! A86   A(36,37,42)           120.1924         estimate D2E/DX2                !
 ! A87   A(38,37,42)           119.0299         estimate D2E/DX2                !
 ! A88   A(33,38,37)           119.6593         estimate D2E/DX2                !
 ! A89   A(33,38,43)           120.2173         estimate D2E/DX2                !
 ! A90   A(37,38,43)           120.1231         estimate D2E/DX2                !
 ! D1    D(44,1,4,3)           145.5294         estimate D2E/DX2                !
 ! D2    D(44,1,4,5)           -33.4368         estimate D2E/DX2                !
 ! D3    D(45,1,4,3)           -94.0196         estimate D2E/DX2                !
 ! D4    D(45,1,4,5)            87.0142         estimate D2E/DX2                !
 ! D5    D(46,1,4,3)            27.1788         estimate D2E/DX2                !
 ! D6    D(46,1,4,5)          -151.7873         estimate D2E/DX2                !
 ! D7    D(6,2,3,4)           -179.8705         estimate D2E/DX2                !
 ! D8    D(6,2,3,7)              0.0309         estimate D2E/DX2                !
 ! D9    D(9,2,3,4)              0.1759         estimate D2E/DX2                !
 ! D10   D(9,2,3,7)           -179.9227         estimate D2E/DX2                !
 ! D11   D(3,2,9,10)             0.0427         estimate D2E/DX2                !
 ! D12   D(3,2,9,12)           179.9728         estimate D2E/DX2                !
 ! D13   D(6,2,9,10)          -179.9103         estimate D2E/DX2                !
 ! D14   D(6,2,9,12)             0.0197         estimate D2E/DX2                !
 ! D15   D(2,3,4,1)           -179.3693         estimate D2E/DX2                !
 ! D16   D(2,3,4,5)             -0.3983         estimate D2E/DX2                !
 ! D17   D(7,3,4,1)              0.7302         estimate D2E/DX2                !
 ! D18   D(7,3,4,5)            179.7011         estimate D2E/DX2                !
 ! D19   D(1,4,5,8)             -0.7352         estimate D2E/DX2                !
 ! D20   D(1,4,5,10)           179.3772         estimate D2E/DX2                !
 ! D21   D(3,4,5,8)           -179.7071         estimate D2E/DX2                !
 ! D22   D(3,4,5,10)             0.4054         estimate D2E/DX2                !
 ! D23   D(4,5,10,9)            -0.1889         estimate D2E/DX2                !
 ! D24   D(4,5,10,22)          179.8471         estimate D2E/DX2                !
 ! D25   D(8,5,10,9)           179.9242         estimate D2E/DX2                !
 ! D26   D(8,5,10,22)           -0.0399         estimate D2E/DX2                !
 ! D27   D(2,9,10,5)            -0.0363         estimate D2E/DX2                !
 ! D28   D(2,9,10,22)          179.9339         estimate D2E/DX2                !
 ! D29   D(12,9,10,5)         -179.9807         estimate D2E/DX2                !
 ! D30   D(12,9,10,22)          -0.0105         estimate D2E/DX2                !
 ! D31   D(2,9,12,11)          179.9999         estimate D2E/DX2                !
 ! D32   D(2,9,12,13)           -0.0125         estimate D2E/DX2                !
 ! D33   D(10,9,12,11)          -0.0636         estimate D2E/DX2                !
 ! D34   D(10,9,12,13)         179.924          estimate D2E/DX2                !
 ! D35   D(5,10,22,11)        -179.9621         estimate D2E/DX2                !
 ! D36   D(5,10,22,21)          57.6314         estimate D2E/DX2                !
 ! D37   D(5,10,22,23)         -57.5726         estimate D2E/DX2                !
 ! D38   D(9,10,22,11)           0.0715         estimate D2E/DX2                !
 ! D39   D(9,10,22,21)        -122.3351         estimate D2E/DX2                !
 ! D40   D(9,10,22,23)         122.461          estimate D2E/DX2                !
 ! D41   D(16,11,12,9)        -179.9909         estimate D2E/DX2                !
 ! D42   D(16,11,12,13)          0.02           estimate D2E/DX2                !
 ! D43   D(22,11,12,9)           0.1128         estimate D2E/DX2                !
 ! D44   D(22,11,12,13)       -179.8763         estimate D2E/DX2                !
 ! D45   D(12,11,16,15)         -0.0084         estimate D2E/DX2                !
 ! D46   D(12,11,16,19)       -179.1223         estimate D2E/DX2                !
 ! D47   D(22,11,16,15)        179.8657         estimate D2E/DX2                !
 ! D48   D(22,11,16,19)          0.7518         estimate D2E/DX2                !
 ! D49   D(12,11,22,10)         -0.1117         estimate D2E/DX2                !
 ! D50   D(12,11,22,21)        122.408          estimate D2E/DX2                !
 ! D51   D(12,11,22,23)       -122.6023         estimate D2E/DX2                !
 ! D52   D(16,11,22,10)       -179.9939         estimate D2E/DX2                !
 ! D53   D(16,11,22,21)        -57.4742         estimate D2E/DX2                !
 ! D54   D(16,11,22,23)         57.5155         estimate D2E/DX2                !
 ! D55   D(9,12,13,14)        -179.968          estimate D2E/DX2                !
 ! D56   D(9,12,13,17)           0.2376         estimate D2E/DX2                !
 ! D57   D(11,12,13,14)          0.0183         estimate D2E/DX2                !
 ! D58   D(11,12,13,17)       -179.776          estimate D2E/DX2                !
 ! D59   D(12,13,14,15)         -0.0693         estimate D2E/DX2                !
 ! D60   D(12,13,14,18)       -179.1494         estimate D2E/DX2                !
 ! D61   D(17,13,14,15)        179.7274         estimate D2E/DX2                !
 ! D62   D(17,13,14,18)          0.6473         estimate D2E/DX2                !
 ! D63   D(13,14,15,16)          0.0795         estimate D2E/DX2                !
 ! D64   D(13,14,15,36)       -179.8901         estimate D2E/DX2                !
 ! D65   D(18,14,15,16)        179.1481         estimate D2E/DX2                !
 ! D66   D(18,14,15,36)         -0.8214         estimate D2E/DX2                !
 ! D67   D(14,15,16,11)         -0.0405         estimate D2E/DX2                !
 ! D68   D(14,15,16,19)        179.078          estimate D2E/DX2                !
 ! D69   D(36,15,16,11)        179.9291         estimate D2E/DX2                !
 ! D70   D(36,15,16,19)         -0.9524         estimate D2E/DX2                !
 ! D71   D(14,15,36,35)        141.8914         estimate D2E/DX2                !
 ! D72   D(14,15,36,37)        -38.1139         estimate D2E/DX2                !
 ! D73   D(16,15,36,35)        -38.0773         estimate D2E/DX2                !
 ! D74   D(16,15,36,37)        141.9173         estimate D2E/DX2                !
 ! D75   D(24,20,21,22)         22.0202         estimate D2E/DX2                !
 ! D76   D(24,20,21,25)        -96.8564         estimate D2E/DX2                !
 ! D77   D(24,20,21,26)        145.4281         estimate D2E/DX2                !
 ! D78   D(29,20,21,22)        -97.6946         estimate D2E/DX2                !
 ! D79   D(29,20,21,25)        143.4287         estimate D2E/DX2                !
 ! D80   D(29,20,21,26)         25.7133         estimate D2E/DX2                !
 ! D81   D(30,20,21,22)        143.773          estimate D2E/DX2                !
 ! D82   D(30,20,21,25)         24.8963         estimate D2E/DX2                !
 ! D83   D(30,20,21,26)        -92.8191         estimate D2E/DX2                !
 ! D84   D(21,20,24,23)          0.2182         estimate D2E/DX2                !
 ! D85   D(21,20,24,31)        121.629          estimate D2E/DX2                !
 ! D86   D(21,20,24,32)       -119.4406         estimate D2E/DX2                !
 ! D87   D(29,20,24,23)        119.9136         estimate D2E/DX2                !
 ! D88   D(29,20,24,31)       -118.6757         estimate D2E/DX2                !
 ! D89   D(29,20,24,32)          0.2547         estimate D2E/DX2                !
 ! D90   D(30,20,24,23)       -121.1746         estimate D2E/DX2                !
 ! D91   D(30,20,24,31)          0.2361         estimate D2E/DX2                !
 ! D92   D(30,20,24,32)        119.1665         estimate D2E/DX2                !
 ! D93   D(20,21,22,10)       -157.4258         estimate D2E/DX2                !
 ! D94   D(20,21,22,11)         87.7313         estimate D2E/DX2                !
 ! D95   D(20,21,22,23)        -34.7185         estimate D2E/DX2                !
 ! D96   D(25,21,22,10)        -39.2007         estimate D2E/DX2                !
 ! D97   D(25,21,22,11)       -154.0436         estimate D2E/DX2                !
 ! D98   D(25,21,22,23)         83.5065         estimate D2E/DX2                !
 ! D99   D(26,21,22,10)         78.9537         estimate D2E/DX2                !
 ! D100  D(26,21,22,11)        -35.8892         estimate D2E/DX2                !
 ! D101  D(26,21,22,23)       -158.339          estimate D2E/DX2                !
 ! D102  D(10,22,23,24)        157.5812         estimate D2E/DX2                !
 ! D103  D(10,22,23,27)        -78.7687         estimate D2E/DX2                !
 ! D104  D(10,22,23,28)         39.3865         estimate D2E/DX2                !
 ! D105  D(11,22,23,24)        -87.5946         estimate D2E/DX2                !
 ! D106  D(11,22,23,27)         36.0555         estimate D2E/DX2                !
 ! D107  D(11,22,23,28)        154.2107         estimate D2E/DX2                !
 ! D108  D(21,22,23,24)         34.8585         estimate D2E/DX2                !
 ! D109  D(21,22,23,27)        158.5087         estimate D2E/DX2                !
 ! D110  D(21,22,23,28)        -83.3362         estimate D2E/DX2                !
 ! D111  D(22,23,24,20)        -22.3808         estimate D2E/DX2                !
 ! D112  D(22,23,24,31)       -144.1469         estimate D2E/DX2                !
 ! D113  D(22,23,24,32)         97.2881         estimate D2E/DX2                !
 ! D114  D(27,23,24,20)       -145.8            estimate D2E/DX2                !
 ! D115  D(27,23,24,31)         92.434          estimate D2E/DX2                !
 ! D116  D(27,23,24,32)        -26.1311         estimate D2E/DX2                !
 ! D117  D(28,23,24,20)         96.4585         estimate D2E/DX2                !
 ! D118  D(28,23,24,31)        -25.3076         estimate D2E/DX2                !
 ! D119  D(28,23,24,32)       -143.8726         estimate D2E/DX2                !
 ! D120  D(38,33,34,35)          0.0393         estimate D2E/DX2                !
 ! D121  D(38,33,34,40)       -179.7547         estimate D2E/DX2                !
 ! D122  D(39,33,34,35)       -179.9737         estimate D2E/DX2                !
 ! D123  D(39,33,34,40)          0.2323         estimate D2E/DX2                !
 ! D124  D(34,33,38,37)          0.029          estimate D2E/DX2                !
 ! D125  D(34,33,38,43)       -179.7741         estimate D2E/DX2                !
 ! D126  D(39,33,38,37)       -179.958          estimate D2E/DX2                !
 ! D127  D(39,33,38,43)          0.2388         estimate D2E/DX2                !
 ! D128  D(33,34,35,36)         -0.0648         estimate D2E/DX2                !
 ! D129  D(33,34,35,41)       -179.1498         estimate D2E/DX2                !
 ! D130  D(40,34,35,36)        179.7294         estimate D2E/DX2                !
 ! D131  D(40,34,35,41)          0.6443         estimate D2E/DX2                !
 ! D132  D(34,35,36,15)       -179.9837         estimate D2E/DX2                !
 ! D133  D(34,35,36,37)          0.0216         estimate D2E/DX2                !
 ! D134  D(41,35,36,15)         -0.9093         estimate D2E/DX2                !
 ! D135  D(41,35,36,37)        179.0959         estimate D2E/DX2                !
 ! D136  D(15,36,37,38)       -179.9471         estimate D2E/DX2                !
 ! D137  D(15,36,37,42)         -0.8684         estimate D2E/DX2                !
 ! D138  D(35,36,37,38)          0.0477         estimate D2E/DX2                !
 ! D139  D(35,36,37,42)        179.1263         estimate D2E/DX2                !
 ! D140  D(36,37,38,33)         -0.073          estimate D2E/DX2                !
 ! D141  D(36,37,38,43)        179.7303         estimate D2E/DX2                !
 ! D142  D(42,37,38,33)       -179.1622         estimate D2E/DX2                !
 ! D143  D(42,37,38,43)          0.6411         estimate D2E/DX2                !
 --------------------------------------------------------------------------------
 Trust Radius=3.00D-01 FncErr=1.00D-07 GrdErr=1.00D-06 EigMax=2.50D+02 EigMin=1.00D-04
 Number of steps in this run=    276 maximum allowed number of steps=    276.
 GradGradGradGradGradGradGradGradGradGradGradGradGradGradGradGradGradGrad

                          Input orientation:                          
 ---------------------------------------------------------------------
 Center     Atomic      Atomic             Coordinates (Angstroms)
 Number     Number       Type             X           Y           Z
 ---------------------------------------------------------------------
      1          6           0        2.717700   -9.214300    2.557700
      2          6           0        1.099100   -6.117300    4.080000
      3          6           0        2.008000   -6.949200    3.425000
      4          6           0        1.723500   -8.307100    3.257000
      5          6           0        0.526900   -8.830100    3.756000
      6          1           0        1.328400   -5.069600    4.202200
      7          1           0        2.931300   -6.534300    3.048200
      8          1           0        0.310900   -9.880300    3.629500
      9          6           0       -0.095200   -6.647300    4.570800
     10          6           0       -0.388200   -8.000500    4.413500
     11          6           0       -2.171100   -6.981400    5.558000
     12          6           0       -1.208600   -6.012100    5.286300
     13          6           0       -1.400300   -4.690700    5.686600
     14          6           0       -2.566100   -4.336800    6.365400
     15          6           0       -3.553500   -5.290100    6.652300
     16          6           0       -3.336500   -6.612900    6.239000
     17          1           0       -0.657700   -3.936800    5.474200
     18          1           0       -2.706900   -3.306800    6.656900
     19          1           0       -4.079400   -7.360500    6.465300
     20          6           0       -3.075200  -10.069700    6.202700
     21          6           0       -1.674200   -9.446700    6.109100
     22          6           0       -1.739300   -8.349100    5.027600
     23          6           0       -2.737700   -8.977700    4.034200
     24          6           0       -3.762900   -9.763900    4.864900
     25          1           0       -0.961800  -10.218700    5.814100
     26          1           0       -1.327800   -9.057000    7.067700
     27          1           0       -3.206900   -8.227800    3.395300
     28          1           0       -2.216400   -9.667800    3.368800
     29          1           0       -3.634500   -9.629100    7.029600
     30          1           0       -3.019400  -11.142500    6.394400
     31          1           0       -4.074500  -10.674700    4.351000
     32          1           0       -4.662200   -9.167200    5.025400
     33          6           0       -7.141600   -4.193600    8.735300
     34          6           0       -7.200000   -5.120600    7.698400
     35          6           0       -6.033900   -5.475100    7.024400
     36          6           0       -4.801500   -4.908400    7.376800
     37          6           0       -4.764200   -3.976500    8.422800
     38          6           0       -5.927200   -3.619600    9.101000
     39          1           0       -8.045100   -3.917500    9.259800
     40          1           0       -8.145200   -5.560700    7.415200
     41          1           0       -6.093100   -6.184900    6.212400
     42          1           0       -3.825500   -3.535200    8.723900
     43          1           0       -5.885700   -2.903300    9.908700
     44          1           0        2.703500  -10.213400    2.994800
     45          1           0        2.481000   -9.295100    1.496600
     46          1           0        3.736600   -8.841000    2.666600
 ---------------------------------------------------------------------
                    Distance matrix (angstroms):
                    1          2          3          4          5
     1  C    0.000000
     2  C    3.811650   0.000000
     3  C    2.527165   1.395415   0.000000
     4  C    1.516729   2.421245   1.397518   0.000000
     5  C    2.526487   2.791357   2.416817   1.397992   0.000000
     6  H    4.670447   1.079438   2.144479   3.395720   3.870770
     7  H    2.732877   2.143702   1.080094   2.155272   3.398944
     8  H    2.717535   3.870966   3.393128   2.146894   1.079620
     9  C    4.307490   1.395757   2.414011   2.790820   2.411540
    10  C    3.816270   2.422752   2.797166   2.427091   1.399268
    11  C    6.155324   3.691255   4.692079   4.713809   3.734180
    12  C    5.754579   2.606090   3.832637   4.240553   3.646218
    13  C    6.871019   3.295960   4.672490   5.360917   4.957413
    14  C    8.136776   4.671929   6.032659   6.620128   6.046930
    15  C    8.455356   5.380304   6.640660   6.962548   6.129422
    16  C    7.548019   4.957968   6.049411   6.112793   5.099718
    17  H    6.910232   3.128054   4.514392   5.448450   5.319763
    18  H    9.007124   5.387482   6.778092   7.496050   7.027057
    19  H    8.056456   5.835415   6.816820   6.697976   5.542385
    20  C    6.897494   6.127977   6.579670   5.900121   4.527480
    21  C    5.652896   4.784699   5.196200   4.580123   3.280566
    22  C    5.168542   3.733014   4.309328   3.889444   2.642724
    23  C    5.656626   4.785919   5.196884   4.577778   3.279755
    24  C    6.900972   6.128034   6.580208   5.899847   4.528137
    25  H    5.015145   4.906719   5.021667   4.171788   2.894860
    26  H    6.060603   4.843349   5.370256   4.939050   3.802467
    27  H    6.064292   4.844033   5.369440   4.932977   3.799228
    28  H    5.020845   4.909623   5.023893   4.169750   2.894367
    29  H    7.779485   6.590891   7.211991   6.684935   5.354634
    30  H    7.166069   6.897182   7.188592   6.354359   4.988446
    31  H    7.175143   6.899962   7.192610   6.357607   4.992941
    32  H    7.781689   6.586976   7.209187   6.681630   5.352735
    33  C   12.671857   9.658239  10.931962  11.203689  10.251656
    34  C   11.897308   9.108309  10.314698  10.464639   9.434399
    35  C   10.513017   7.743488   8.933130   9.076937   8.061176
    36  C    9.914780   6.866397   8.133319   8.432054   7.542000
    37  C   10.854159   7.604027   8.926233   9.355738   8.563422
    38  C   12.200399   8.989874  10.308764  10.707857   9.867813
    39  H   13.740891  10.737124  12.012532  12.277123  11.309493
    40  H   12.447759   9.843294  10.997140  11.055523   9.964138
    41  H   10.008211   7.501962   8.601254   8.621911   7.540251
    42  H   10.634268   7.244635   8.588566   9.135066   8.465186
    43  H   12.957022   9.648366  10.987182  11.460632  10.681953
    44  H    1.090623   4.530982   3.365085   2.159428   2.688965
    45  H    1.090178   4.322270   3.073386   2.156144   3.023180
    46  H    1.090582   4.046313   2.672477   2.164762   3.389555
                    6          7          8          9         10
     6  H    0.000000
     7  H    2.458933   0.000000
     8  H    4.950366   4.289536   0.000000
     9  C    2.156766   3.389806   3.391644   0.000000
    10  C    3.403166   3.877224   2.153380   1.393464   0.000000
    11  C    4.211849   5.703813   4.275869   2.322832   2.350995
    12  C    2.915467   4.735035   4.474018   1.468019   2.321329
    13  C    3.129347   5.396552   5.838820   2.603186   3.687805
    14  C    4.514816   6.786327   6.818553   3.829405   4.687842
    15  C    5.466677   7.522646   6.718694   4.258459   4.730499
    16  C    5.318987   7.033683   5.548776   3.645559   3.735018
    17  H    2.616450   5.051079   6.298118   2.911932   4.208488
    18  H    5.041494   7.431606   7.841120   4.725646   5.695615
    19  H    6.293977   7.842773   5.802231   4.468963   4.271351
    20  C    6.956629   7.650357   4.257100   4.822481   3.834422
    21  C    5.640113   6.249945   3.205783   3.563180   2.573004
    22  C    4.565872   5.387581   2.915918   2.409949   1.524504
    23  C    5.642219   6.251397   3.205063   3.563918   2.572730
    24  C    6.956792   7.651342   4.258592   4.822003   3.834311
    25  H    5.861439   6.031686   2.550835   3.879651   2.685351
    26  H    5.582638   6.376545   3.896714   3.682454   3.007294
    27  H    5.585182   6.376984   3.893652   3.682724   3.005573
    28  H    5.865459   6.034933   2.549582   3.881715   2.685815
    29  H    7.308461   8.278832   5.214400   5.240560   4.476023
    30  H    7.783908   8.236710   4.508738   5.664211   4.551850
    31  H    7.786566   8.241446   4.514794   5.665959   4.554565
    32  H    7.304469   8.276637   5.214285   5.235842   4.472436
    33  C    9.646620  11.801919  10.674620   8.544908   8.875745
    34  C    9.217354  11.236821   9.778768   7.911440   8.092281
    35  C    7.895106   9.864425   8.437276   6.531643   6.713298
    36  C    6.905052   9.009802   8.055972   5.748623   6.149752
    37  C    7.491869   9.728792   9.142605   6.615938   7.170526
    38  C    8.873808  11.117773  10.394593   7.981347   8.476170
    39  H   10.713037  12.880721  11.708031   9.624938   9.939096
    40  H   10.015670  11.946022  10.222333   8.606614   8.667980
    41  H    7.769393   9.569432   7.831894   6.235661   6.251266
    42  H    7.025869   9.320006   9.128144   6.391287   7.094609
    43  H    9.449880  11.746919  11.247432   8.720126   9.295223
    44  H    5.459615   3.686532   2.497666   4.799330   4.058109
    45  H    5.148166   3.198789   3.098557   4.806075   4.291457
    46  H    4.730851   2.472851   3.707120   4.808429   4.557639
                   11         12         13         14         15
    11  C    0.000000
    12  C    1.392756   0.000000
    13  C    2.420326   1.393947   0.000000
    14  C    2.793175   2.411202   1.394670   0.000000
    15  C    2.443157   2.808166   2.434775   1.402159   0.000000
    16  C    1.399182   2.407604   2.783679   2.406268   1.402749
    17  H    3.401028   2.155381   1.079321   2.143882   3.406611
    18  H    3.872641   3.382617   2.136320   1.079674   2.156440
    19  H    2.146746   3.383743   3.861578   3.382724   2.144317
    20  C    3.281864   4.559397   5.657322   5.757760   4.824468
    21  C    2.574553   3.562339   4.782579   5.193482   4.593926
    22  C    1.529176   2.410423   3.732706   4.309508   3.910045
    23  C    2.574532   3.563802   4.785126   5.196335   4.595473
    24  C    3.279714   4.558292   5.656362   5.756496   4.822192
    25  H    3.465271   4.246760   5.546830   6.121638   5.631215
    26  H    2.701567   3.529732   4.580095   4.930203   4.394978
    27  H    2.702530   3.532479   4.585296   4.936801   4.399802
    28  H    3.465746   4.249307   5.550652   6.125477   5.633246
    29  H    3.364143   4.691138   5.584182   5.439768   4.356126
    30  H    4.328271   5.552287   6.689409   6.820841   5.882377
    31  H    4.326690   5.552298   6.689053   6.819241   5.878889
    32  H    3.356630   4.685091   5.578192   5.433415   4.348324
    33  C    6.524794   7.099509   6.519525   5.154816   4.291347
    34  C    5.773537   6.519960   6.153753   4.885106   3.797370
    35  C    4.397783   5.156829   4.886230   3.708860   2.514969
    36  C    3.811085   4.300846   3.804252   2.519260   1.492682
    37  C    4.894964   5.159805   4.394621   3.032219   2.515156
    38  C    6.161399   6.522360   5.770460   4.392593   3.797519
    39  H    7.589116   8.180085   7.584126   6.210701   5.371923
    40  H    6.415407   7.269965   7.017025   5.807441   4.662505
    41  H    4.055211   4.974521   4.952926   3.984798   2.728323
    42  H    4.963492   4.979989   4.054869   2.791267   2.728587
    43  H    7.025507   7.273684   6.414027   5.062573   4.662629
    44  H    6.385730   6.181134   7.388314   8.582777   8.761634
    45  H    6.594711   6.225196   7.336286   8.588549   8.890245
    46  H    6.835146   6.270607   7.261758   8.584461   9.035500
                   16         17         18         19         20
    16  C    0.000000
    17  H    3.862952   0.000000
    18  H    3.391362   2.448448   0.000000
    19  H    1.077969   4.940853   4.284034   0.000000
    20  C    3.466852   6.632306   6.788134   2.901231   0.000000
    21  C    3.287938   5.638738   6.250194   3.203763   1.536129
    22  C    2.651967   4.564833   5.386618   2.918969   2.475066
    23  C    3.288158   5.640095   6.248089   3.213369   2.451278
    24  C    3.463924   6.630883   6.783844   2.904786   1.534977
    25  H    4.338379   6.298434   7.178443   4.279346   2.153989
    26  H    3.270358   5.404140   5.927518   3.288206   2.197087
    27  H    3.272817   5.406748   5.924886   3.307320   3.360273
    28  H    4.338789   6.301319   7.177361   4.287507   2.988319
    29  H    3.132302   6.609303   6.400846   2.379688   1.091196
    30  H    4.543344   7.638489   7.846321   3.928378   1.091221
    31  H    4.539538   7.637761   7.840501   3.931184   2.189388
    32  H    3.123260   6.602615   6.389779   2.382673   2.172351
    33  C    5.153961   7.262347   4.977221   4.955726   7.581439
    34  C    4.391291   7.010716   4.956061   4.034332   6.613976
    35  C    3.031074   5.802845   3.988171   2.772615   5.526251
    36  C    2.519153   4.662078   2.733263   2.713863   5.567552
    37  C    3.709166   5.055607   2.792738   3.968906   6.701392
    38  C    4.884938   6.404836   4.054849   4.935141   7.624817
    39  H    6.209777   8.300893   5.970295   5.948971   8.479111
    40  H    5.061044   7.903619   5.935503   4.546682   6.892470
    41  H    2.789755   5.928108   4.466250   2.345417   4.919297
    42  H    3.985735   4.555962   2.361339   4.449568   7.044082
    43  H    5.807431   6.932885   4.565280   5.914926   8.543456
    44  H    7.744032   7.539284   9.507078   8.135794   6.610949
    45  H    7.970437   7.374559   9.455302   8.453964   7.322482
    46  H    8.231356   7.158468   9.384485   8.815433   7.772665
                   21         22         23         24         25
    21  C    0.000000
    22  C    1.542273   0.000000
    23  C    2.378277   1.542331   0.000000
    24  C    2.451799   2.474487   1.535971   0.000000
    25  H    1.091111   2.172209   2.803916   2.992321   0.000000
    26  H    1.091225   2.198286   3.346077   3.358831   1.747860
    27  H    3.346580   2.198401   1.091188   2.197376   3.854186
    28  H    2.802162   2.172144   1.091214   2.153883   2.803035
    29  H    2.173331   3.039439   3.193899   2.172690   2.994728
    30  H    2.183277   3.363017   3.215005   2.189224   2.328921
    31  H    3.218748   3.364426   2.183393   1.091212   3.469510
    32  H    3.190716   3.035233   2.173037   1.091124   3.926915
    33  C    8.023992   7.758870   8.023858   7.577853   9.111815
    34  C    7.195518   6.882996   6.943753   6.434486   8.273835
    35  C    5.968112   5.539917   5.663430   5.311750   7.049310
    36  C    5.655372   5.170515   5.656098   5.564550   6.736810
    37  C    6.695102   6.308489   6.955466   6.866968   7.760710
    38  C    7.809902   7.516599   8.034588   7.770532   8.888590
    39  H    9.004850   8.792821   9.004500   8.475422  10.087175
    40  H    7.660335   7.383181   7.235199   6.586006   8.709863
    41  H    5.493331   5.004307   4.878831   4.478262   6.539146
    42  H    6.812569   6.417827   7.266182   7.327517   7.831787
    43  H    8.659664   8.406813   9.017649   8.775764   9.722429
    44  H    5.426873   5.229375   5.675735   6.746381   4.624165
    45  H    6.209978   5.583351   5.811625   7.109958   5.598814
    46  H    6.441617   5.983458   6.618578   7.869356   5.820634
                   26         27         28         29         30
    26  H    0.000000
    27  H    4.207744   0.000000
    28  H    3.852862   1.747968   0.000000
    29  H    2.376892   3.918497   3.926062   0.000000
    30  H    2.768421   4.186315   3.460319   1.752771   0.000000
    31  H    4.188290   2.766480   2.330472   2.908913   2.346818
    32  H    3.911695   2.378570   2.996141   2.299203   2.911145
    33  C    7.761045   7.763519   9.111739   6.689830   8.411870
    34  C    7.097588   6.642003   8.016154   5.786766   7.445879
    35  C    5.914327   5.360938   6.746514   4.797172   6.450080
    36  C    5.419688   5.423422   6.737855   4.875187   6.557819
    37  C    6.281451   6.765685   8.026525   5.930355   7.649202
    38  C    7.406356   7.822439   9.121890   6.757312   8.507350
    39  H    8.737384   8.739521  10.086802   7.553116   9.255744
    40  H    7.669538   6.903610   8.269963   6.086623   7.646721
    41  H    5.629261   4.521022   5.936788   4.309877   5.835971
    42  H    6.282657   7.127211   8.299101   6.327934   7.996711
    43  H    8.167849   8.828966  10.099134   7.654639   9.404807
    44  H    5.846123   6.247866   4.964169   7.535998   6.721019
    45  H    6.752837   6.090681   5.070464   8.253786   7.593137
    46  H    6.713009   7.008510   6.051024   8.601743   8.052138
                   31         32         33         34         35
    31  H    0.000000
    32  H    1.752930   0.000000
    33  C    8.404394   6.681877   0.000000
    34  C    7.198740   5.473603   1.392085   0.000000
    35  C    6.166211   4.416918   2.407576   1.392744   0.000000
    36  C    6.552420   4.866812   2.798666   2.429250   1.401479
    37  C    7.868998   6.204522   2.407658   2.786905   2.411112
    38  C    8.704564   6.999043   1.392113   2.416673   2.786850
    39  H    9.247796   7.545429   1.080576   2.144671   3.386452
    40  H    7.218928   5.554212   2.149149   1.080413   2.148869
    41  H    5.262876   3.514336   3.380777   2.136857   1.080123
    42  H    8.375961   6.789580   3.380849   3.866833   3.395371
    43  H    9.724358   8.036169   2.149192   3.395472   3.867209
    44  H    6.927724   7.711771  12.888651  12.088829  10.725266
    45  H    7.281859   7.968318  13.077405  12.231539  10.846773
    46  H    8.198350   8.729845  13.295213  12.600381  11.215274
                   36         37         38         39         40
    36  C    0.000000
    37  C    1.401408   0.000000
    38  C    2.429212   1.392804   0.000000
    39  H    3.879241   3.386496   2.144636   0.000000
    40  H    3.406949   3.867313   3.395484   2.472383   0.000000
    41  H    2.157200   3.395420   3.866820   4.270603   2.459160
    42  H    2.157066   1.080076   2.136930   4.270640   4.947237
    43  H    3.406822   2.148818   1.080364   2.472384   4.287733
    44  H   10.181845  11.141304  12.460051  13.943493  12.604834
    45  H   10.337054  11.346924  12.678171  14.141592  12.723667
    46  H   10.514299  11.360493  12.730026  14.370790  13.209343
                   41         42         43         44         45
    41  H    0.000000
    42  H    4.297738   0.000000
    43  H    4.947176   2.459161   0.000000
    44  H   10.196172  10.956678  13.229283   0.000000
    45  H   10.267780  11.188488  13.476654   1.771266   0.000000
    46  H   10.781956  11.046617  13.427321   1.748855   1.775285
                   46
    46  H    0.000000
 Stoichiometry    C24H22
 Framework group  C1[X(C24H22)]
 Deg. of freedom   132
 Full point group                 C1      NOp   1
 Largest Abelian subgroup         C1      NOp   1
 Largest concise Abelian subgroup C1      NOp   1
                         Standard orientation:                         
 ---------------------------------------------------------------------
 Center     Atomic      Atomic             Coordinates (Angstroms)
 Number     Number       Type             X           Y           Z
 ---------------------------------------------------------------------
      1          6           0       -6.350261   -0.333983   -0.000871
      2          6           0       -3.068626   -2.268200   -0.136342
      3          6           0       -4.433041   -1.976408   -0.116076
      4          6           0       -4.867358   -0.650428   -0.037309
      5          6           0       -3.927685    0.382492    0.029556
      6          1           0       -2.744643   -3.295932   -0.199489
      7          1           0       -5.149308   -2.783457   -0.163372
      8          1           0       -4.264990    1.405967    0.095154
      9          6           0       -2.137659   -1.230155   -0.073890
     10          6           0       -2.558271    0.095696    0.009458
     11          6           0       -0.207557    0.059956    0.002710
     12          6           0       -0.669798   -1.251429   -0.077121
     13          6           0        0.226972   -2.316557   -0.143402
     14          6           0        1.598934   -2.066311   -0.129234
     15          6           0        2.094363   -0.756952   -0.050629
     16          6           0        1.171301    0.297240    0.015261
     17          1           0       -0.128480   -3.333559   -0.208949
     18          1           0        2.281310   -2.900404   -0.195186
     19          1           0        1.536423    1.308643    0.091207
     20          6           0       -0.496563    3.182800    0.969639
     21          6           0       -1.352305    1.955167    1.316503
     22          6           0       -1.370987    1.050195    0.067790
     23          6           0       -1.357112    2.105367   -1.057022
     24          6           0       -0.496699    3.277651   -0.562404
     25          1           0       -2.365251    2.284428    1.553253
     26          1           0       -0.984849    1.428267    2.198617
     27          1           0       -0.996181    1.693314   -2.000756
     28          1           0       -2.370725    2.463642   -1.244041
     29          1           0        0.520420    3.057646    1.344858
     30          1           0       -0.895565    4.086995    1.432231
     31          1           0       -0.891891    4.233549   -0.910004
     32          1           0        0.519838    3.195202   -0.950226
     33          6           0        6.317000    0.007036   -0.014282
     34          6           0        5.465591    0.862582   -0.707856
     35          6           0        4.095495    0.612625   -0.717560
     36          6           0        3.563199   -0.491503   -0.038069
     37          6           0        4.437249   -1.341149    0.653364
     38          6           0        5.808036   -1.094879    0.667420
     39          1           0        7.380274    0.199415   -0.005137
     40          1           0        5.865227    1.714402   -1.238882
     41          1           0        3.445822    1.275138   -1.270430
     42          1           0        4.051842   -2.191158    1.196974
     43          1           0        6.471868   -1.754308    1.207482
     44          1           0       -6.544788    0.535778    0.627725
     45          1           0       -6.722138   -0.128183   -1.004784
     46          1           0       -6.919531   -1.160496    0.425952
 ---------------------------------------------------------------------
 Rotational constants (GHZ):           0.5499963           0.1289720           0.1089519
 Standard basis: def2TZVP (5D, 7F)
 There are   996 symmetry adapted cartesian basis functions of A   symmetry.
 There are   876 symmetry adapted basis functions of A   symmetry.
   876 basis functions,  1400 primitive gaussians,   996 cartesian basis functions
    83 alpha electrons       83 beta electrons
       nuclear repulsion energy      1881.3748498107 Hartrees.
 NAtoms=   46 NActive=   46 NUniq=   46 SFac= 1.00D+00 NAtFMM=   60 NAOKFM=F Big=F
 Integral buffers will be    131072 words long.
 Raffenetti 2 integral format.
 Two-electron integral symmetry is turned on.
 One-electron integrals computed using PRISM.
   1 Symmetry operations used in ECPInt.
 ECPInt:  NShTT=   62128 NPrTT=  188172 LenC2=   52012 LenP2D=  111012.
 LDataN:  DoStor=T MaxTD1= 6 Len=  172
 Number of processors reduced to  27 by ecpmxn.
 NBasis=   876 RedAO= T EigKep=  4.32D-06  NBF=   876
 NBsUse=   876 1.00D-06 EigRej= -1.00D+00 NBFU=   876
 ExpMin= 9.52D-02 ExpMax= 1.36D+04 ExpMxC= 4.63D+02 IAcc=3 IRadAn=         5 AccDes= 0.00D+00
 Harris functional with IExCor= 1009 and IRadAn=       5 diagonalized for initial guess.
 HarFok:  IExCor= 1009 AccDes= 0.00D+00 IRadAn=         5 IDoV= 1 UseB2=F ITyADJ=14
 ICtDFT=  3500011 ScaDFX=  1.000000  1.000000  1.000000  1.000000
 FoFCou: FMM=F IPFlag=           0 FMFlag=      100000 FMFlg1=           0
         NFxFlg=           0 DoJE=T BraDBF=F KetDBF=T FulRan=T
         wScrn=  0.000000 ICntrl=       500 IOpCl=  0 I1Cent=   200000004 NGrid=           0
         NMat0=    1 NMatS0=      1 NMatT0=    0 NMatD0=    1 NMtDS0=    0 NMtDT0=    0
 Petite list used in FoFCou.
 Requested convergence on RMS density matrix=1.00D-08 within 128 cycles.
 Requested convergence on MAX density matrix=1.00D-06.
 Requested convergence on             energy=1.00D-06.
 No special actions if energy rises.
 Integral accuracy reduced to 1.0D-05 until final iterations.
 Problem detected with inexpensive integrals.
 Switching to full accuracy and repeating last cycle.
 SCF Done:  E(RM062X) =  -927.762240091     A.U. after   14 cycles
            NFock= 14  Conv=0.43D-08     -V/T= 2.0054

 **********************************************************************

            Population analysis using the SCF Density.

 **********************************************************************

 Orbital symmetries:
       Occupied  (A) (A) (A) (A) (A) (A) (A) (A) (A) (A) (A) (A)
                 (A) (A) (A) (A) (A) (A) (A) (A) (A) (A) (A) (A)
                 (A) (A) (A) (A) (A) (A) (A) (A) (A) (A) (A) (A)
                 (A) (A) (A) (A) (A) (A) (A) (A) (A) (A) (A) (A)
                 (A) (A) (A) (A) (A) (A) (A) (A) (A) (A) (A) (A)
                 (A) (A) (A) (A) (A) (A) (A) (A) (A) (A) (A) (A)
                 (A) (A) (A) (A) (A) (A) (A) (A) (A) (A) (A)
       Virtual   (A) (A) (A) (A) (A) (A) (A) (A) (A) (A) (A) (A)
                 (A) (A) (A) (A) (A) (A) (A) (A) (A) (A) (A) (A)
                 (A) (A) (A) (A) (A) (A) (A) (A) (A) (A) (A) (A)
                 (A) (A) (A) (A) (A) (A) (A) (A) (A) (A) (A) (A)
                 (A) (A) (A) (A) (A) (A) (A) (A) (A) (A) (A) (A)
                 (A) (A) (A) (A) (A) (A) (A) (A) (A) (A) (A) (A)
                 (A) (A) (A) (A) (A) (A) (A) (A) (A) (A) (A) (A)
                 (A) (A) (A) (A) (A) (A) (A) (A) (A) (A) (A) (A)
                 (A) (A) (A) (A) (A) (A) (A) (A) (A) (A) (A) (A)
                 (A) (A) (A) (A) (A) (A) (A) (A) (A) (A) (A) (A)
                 (A) (A) (A) (A) (A) (A) (A) (A) (A) (A) (A) (A)
                 (A) (A) (A) (A) (A) (A) (A) (A) (A) (A) (A) (A)
                 (A) (A) (A) (A) (A) (A) (A) (A) (A) (A) (A) (A)
                 (A) (A) (A) (A) (A) (A) (A) (A) (A) (A) (A) (A)
                 (A) (A) (A) (A) (A) (A) (A) (A) (A) (A) (A) (A)
                 (A) (A) (A) (A) (A) (A) (A) (A) (A) (A) (A) (A)
                 (A) (A) (A) (A) (A) (A) (A) (A) (A) (A) (A) (A)
                 (A) (A) (A) (A) (A) (A) (A) (A) (A) (A) (A) (A)
                 (A) (A) (A) (A) (A) (A) (A) (A) (A) (A) (A) (A)
                 (A) (A) (A) (A) (A) (A) (A) (A) (A) (A) (A) (A)
                 (A) (A) (A) (A) (A) (A) (A) (A) (A) (A) (A) (A)
                 (A) (A) (A) (A) (A) (A) (A) (A) (A) (A) (A) (A)
                 (A) (A) (A) (A) (A) (A) (A) (A) (A) (A) (A) (A)
                 (A) (A) (A) (A) (A) (A) (A) (A) (A) (A) (A) (A)
                 (A) (A) (A) (A) (A) (A) (A) (A) (A) (A) (A) (A)
                 (A) (A) (A) (A) (A) (A) (A) (A) (A) (A) (A) (A)
                 (A) (A) (A) (A) (A) (A) (A) (A) (A) (A) (A) (A)
                 (A) (A) (A) (A) (A) (A) (A) (A) (A) (A) (A) (A)
                 (A) (A) (A) (A) (A) (A) (A) (A) (A) (A) (A) (A)
                 (A) (A) (A) (A) (A) (A) (A) (A) (A) (A) (A) (A)
                 (A) (A) (A) (A) (A) (A) (A) (A) (A) (A) (A) (A)
                 (A) (A) (A) (A) (A) (A) (A) (A) (A) (A) (A) (A)
                 (A) (A) (A) (A) (A) (A) (A) (A) (A) (A) (A) (A)
                 (A) (A) (A) (A) (A) (A) (A) (A) (A) (A) (A) (A)
                 (A) (A) (A) (A) (A) (A) (A) (A) (A) (A) (A) (A)
                 (A) (A) (A) (A) (A) (A) (A) (A) (A) (A) (A) (A)
                 (A) (A) (A) (A) (A) (A) (A) (A) (A) (A) (A) (A)
                 (A) (A) (A) (A) (A) (A) (A) (A) (A) (A) (A) (A)
                 (A) (A) (A) (A) (A) (A) (A) (A) (A) (A) (A) (A)
                 (A) (A) (A) (A) (A) (A) (A) (A) (A) (A) (A) (A)
                 (A) (A) (A) (A) (A) (A) (A) (A) (A) (A) (A) (A)
                 (A) (A) (A) (A) (A) (A) (A) (A) (A) (A) (A) (A)
                 (A) (A) (A) (A) (A) (A) (A) (A) (A) (A) (A) (A)
                 (A) (A) (A) (A) (A) (A) (A) (A) (A) (A) (A) (A)
                 (A) (A) (A) (A) (A) (A) (A) (A) (A) (A) (A) (A)
                 (A) (A) (A) (A) (A) (A) (A) (A) (A) (A) (A) (A)
                 (A) (A) (A) (A) (A) (A) (A) (A) (A) (A) (A) (A)
                 (A) (A) (A) (A) (A) (A) (A) (A) (A) (A) (A) (A)
                 (A) (A) (A) (A) (A) (A) (A) (A) (A) (A) (A) (A)
                 (A) (A) (A) (A) (A) (A) (A) (A) (A) (A) (A) (A)
                 (A) (A) (A) (A) (A) (A) (A) (A) (A) (A) (A) (A)
                 (A) (A) (A) (A) (A) (A) (A) (A) (A) (A) (A) (A)
                 (A) (A) (A) (A) (A) (A) (A) (A) (A) (A) (A) (A)
                 (A) (A) (A) (A) (A) (A) (A) (A) (A) (A) (A) (A)
                 (A) (A) (A) (A) (A) (A) (A) (A) (A) (A) (A) (A)
                 (A) (A) (A) (A) (A) (A) (A) (A) (A) (A) (A) (A)
                 (A) (A) (A) (A) (A) (A) (A) (A) (A) (A) (A) (A)
                 (A) (A) (A) (A) (A) (A) (A) (A) (A) (A) (A) (A)
                 (A) (A) (A) (A) (A) (A) (A) (A) (A) (A) (A) (A)
                 (A) (A) (A) (A) (A) (A) (A) (A) (A) (A) (A) (A)
                 (A) (A) (A) (A) (A) (A) (A) (A) (A) (A) (A) (A)
                 (A) (A) (A) (A) (A) (A) (A) (A) (A) (A) (A) (A)
                 (A) (A) (A) (A) (A) (A) (A) (A) (A) (A) (A) (A)
                 (A) (A) (A) (A) (A) (A) (A) (A) (A) (A) (A) (A)
                 (A) (A) (A) (A) (A) (A) (A) (A) (A) (A) (A) (A)
                 (A) (A) (A) (A) (A) (A) (A) (A) (A) (A) (A) (A)
                 (A)
 The electronic state is 1-A.
 Alpha  occ. eigenvalues --  -10.55686 -10.55435 -10.55244 -10.54950 -10.54469
 Alpha  occ. eigenvalues --  -10.54355 -10.54343 -10.54270 -10.54257 -10.54190
 Alpha  occ. eigenvalues --  -10.54184 -10.54173 -10.54160 -10.54126 -10.54053
 Alpha  occ. eigenvalues --  -10.54050 -10.54033 -10.53840 -10.53697 -10.53295
 Alpha  occ. eigenvalues --  -10.53257 -10.53173 -10.52957 -10.52888  -0.99976
 Alpha  occ. eigenvalues --   -0.96896  -0.94864  -0.93975  -0.90127  -0.86221
 Alpha  occ. eigenvalues --   -0.85644  -0.84503  -0.83504  -0.81686  -0.80689
 Alpha  occ. eigenvalues --   -0.79269  -0.76796  -0.72232  -0.70364  -0.69145
 Alpha  occ. eigenvalues --   -0.66867  -0.66331  -0.64950  -0.64919  -0.62709
 Alpha  occ. eigenvalues --   -0.59372  -0.58536  -0.55887  -0.55573  -0.53999
 Alpha  occ. eigenvalues --   -0.53960  -0.52045  -0.51631  -0.50793  -0.50439
 Alpha  occ. eigenvalues --   -0.50012  -0.49321  -0.49120  -0.48954  -0.47733
 Alpha  occ. eigenvalues --   -0.47364  -0.46185  -0.45181  -0.44208  -0.43782
 Alpha  occ. eigenvalues --   -0.43469  -0.41921  -0.41855  -0.40400  -0.40069
 Alpha  occ. eigenvalues --   -0.40025  -0.39658  -0.39574  -0.39217  -0.37757
 Alpha  occ. eigenvalues --   -0.37654  -0.36891  -0.34420  -0.30919  -0.30395
 Alpha  occ. eigenvalues --   -0.30138  -0.29607  -0.25441
 Alpha virt. eigenvalues --   -0.01694   0.00819   0.01951   0.02868   0.03235
 Alpha virt. eigenvalues --    0.05687   0.07064   0.07393   0.08463   0.08876
 Alpha virt. eigenvalues --    0.09088   0.10005   0.10254   0.10544   0.11539
 Alpha virt. eigenvalues --    0.11767   0.12499   0.13261   0.13866   0.13989
 Alpha virt. eigenvalues --    0.14240   0.14601   0.14994   0.15501   0.15764
 Alpha virt. eigenvalues --    0.16158   0.16526   0.16720   0.17732   0.17797
 Alpha virt. eigenvalues --    0.18533   0.19095   0.19505   0.20221   0.20541
 Alpha virt. eigenvalues --    0.21156   0.21806   0.22371   0.22553   0.22807
 Alpha virt. eigenvalues --    0.22920   0.23351   0.23715   0.24096   0.24480
 Alpha virt. eigenvalues --    0.24892   0.24967   0.25670   0.25946   0.26112
 Alpha virt. eigenvalues --    0.26660   0.26885   0.27031   0.27727   0.28427
 Alpha virt. eigenvalues --    0.28884   0.29084   0.29390   0.29916   0.30127
 Alpha virt. eigenvalues --    0.30802   0.31011   0.31732   0.32388   0.32515
 Alpha virt. eigenvalues --    0.32937   0.33237   0.33736   0.34300   0.35003
 Alpha virt. eigenvalues --    0.35384   0.35620   0.35897   0.36641   0.36974
 Alpha virt. eigenvalues --    0.37582   0.37709   0.37780   0.38114   0.38408
 Alpha virt. eigenvalues --    0.38970   0.39532   0.39789   0.40482   0.40547
 Alpha virt. eigenvalues --    0.41074   0.41697   0.41834   0.41990   0.42250
 Alpha virt. eigenvalues --    0.42578   0.43205   0.43761   0.43954   0.44322
 Alpha virt. eigenvalues --    0.44629   0.44740   0.44925   0.45446   0.46068
 Alpha virt. eigenvalues --    0.46316   0.46426   0.46958   0.47168   0.47350
 Alpha virt. eigenvalues --    0.47476   0.47751   0.48450   0.48732   0.48962
 Alpha virt. eigenvalues --    0.49339   0.49537   0.50196   0.50838   0.50983
 Alpha virt. eigenvalues --    0.51640   0.51968   0.52783   0.53202   0.53454
 Alpha virt. eigenvalues --    0.53618   0.53713   0.53773   0.54514   0.54940
 Alpha virt. eigenvalues --    0.55386   0.56135   0.56344   0.56829   0.57177
 Alpha virt. eigenvalues --    0.57831   0.58760   0.59010   0.59553   0.59852
 Alpha virt. eigenvalues --    0.60576   0.60873   0.61508   0.62333   0.62650
 Alpha virt. eigenvalues --    0.63755   0.64363   0.64901   0.65546   0.66278
 Alpha virt. eigenvalues --    0.67359   0.67871   0.68140   0.68524   0.69192
 Alpha virt. eigenvalues --    0.69960   0.70655   0.71396   0.71542   0.71810
 Alpha virt. eigenvalues --    0.72074   0.72522   0.73172   0.73347   0.73660
 Alpha virt. eigenvalues --    0.74863   0.75267   0.75727   0.76142   0.76378
 Alpha virt. eigenvalues --    0.77066   0.78012   0.78264   0.78458   0.79415
 Alpha virt. eigenvalues --    0.80318   0.80724   0.81085   0.81753   0.81995
 Alpha virt. eigenvalues --    0.83221   0.83442   0.83637   0.84679   0.86004
 Alpha virt. eigenvalues --    0.86223   0.86533   0.87481   0.88101   0.88410
 Alpha virt. eigenvalues --    0.89294   0.89905   0.90917   0.90980   0.91608
 Alpha virt. eigenvalues --    0.92531   0.93217   0.93569   0.94432   0.94764
 Alpha virt. eigenvalues --    0.95012   0.95695   0.96374   0.96561   0.97112
 Alpha virt. eigenvalues --    0.97630   0.98069   0.98424   0.99104   0.99342
 Alpha virt. eigenvalues --    1.00400   1.00938   1.01685   1.02468   1.03122
 Alpha virt. eigenvalues --    1.03564   1.04179   1.04672   1.05247   1.05788
 Alpha virt. eigenvalues --    1.06720   1.07357   1.07743   1.08196   1.08516
 Alpha virt. eigenvalues --    1.08976   1.09806   1.11049   1.11820   1.11916
 Alpha virt. eigenvalues --    1.12598   1.13697   1.13982   1.14856   1.15449
 Alpha virt. eigenvalues --    1.16110   1.17124   1.17644   1.19219   1.20079
 Alpha virt. eigenvalues --    1.21126   1.22307   1.23075   1.23664   1.23825
 Alpha virt. eigenvalues --    1.24261   1.25110   1.25450   1.26313   1.26809
 Alpha virt. eigenvalues --    1.27433   1.28202   1.28556   1.29325   1.29760
 Alpha virt. eigenvalues --    1.30035   1.30742   1.31273   1.31576   1.31757
 Alpha virt. eigenvalues --    1.31910   1.32860   1.33429   1.34289   1.34877
 Alpha virt. eigenvalues --    1.35535   1.35874   1.37318   1.38313   1.38796
 Alpha virt. eigenvalues --    1.39246   1.39986   1.41120   1.41688   1.41875
 Alpha virt. eigenvalues --    1.43831   1.45581   1.46073   1.46729   1.47295
 Alpha virt. eigenvalues --    1.48799   1.48927   1.49224   1.50342   1.51095
 Alpha virt. eigenvalues --    1.51417   1.52035   1.52698   1.53210   1.53845
 Alpha virt. eigenvalues --    1.54393   1.54596   1.55764   1.56387   1.56626
 Alpha virt. eigenvalues --    1.57020   1.57866   1.58468   1.58769   1.59507
 Alpha virt. eigenvalues --    1.59952   1.60217   1.60779   1.61520   1.61820
 Alpha virt. eigenvalues --    1.63326   1.63894   1.64144   1.64707   1.65987
 Alpha virt. eigenvalues --    1.66175   1.67158   1.67436   1.67892   1.68385
 Alpha virt. eigenvalues --    1.69360   1.69687   1.70563   1.71097   1.71966
 Alpha virt. eigenvalues --    1.72078   1.72591   1.73788   1.74547   1.74907
 Alpha virt. eigenvalues --    1.75702   1.76378   1.76871   1.76978   1.77710
 Alpha virt. eigenvalues --    1.78270   1.79001   1.79212   1.79742   1.81590
 Alpha virt. eigenvalues --    1.81820   1.82153   1.84300   1.84467   1.85108
 Alpha virt. eigenvalues --    1.85385   1.87585   1.87901   1.88618   1.89206
 Alpha virt. eigenvalues --    1.89522   1.90998   1.91121   1.92075   1.93154
 Alpha virt. eigenvalues --    1.93376   1.95178   1.96254   1.96654   1.97755
 Alpha virt. eigenvalues --    1.97835   1.99781   2.00713   2.02412   2.02647
 Alpha virt. eigenvalues --    2.03211   2.03970   2.04035   2.04711   2.05527
 Alpha virt. eigenvalues --    2.06730   2.06986   2.07682   2.08459   2.08951
 Alpha virt. eigenvalues --    2.09386   2.09986   2.10996   2.11239   2.11871
 Alpha virt. eigenvalues --    2.13442   2.14665   2.15413   2.16220   2.17180
 Alpha virt. eigenvalues --    2.17992   2.18373   2.18796   2.19091   2.20599
 Alpha virt. eigenvalues --    2.21446   2.22124   2.22386   2.22737   2.23398
 Alpha virt. eigenvalues --    2.24670   2.25729   2.26099   2.26465   2.26789
 Alpha virt. eigenvalues --    2.27396   2.27747   2.28564   2.29956   2.30613
 Alpha virt. eigenvalues --    2.31489   2.34020   2.34850   2.35409   2.36528
 Alpha virt. eigenvalues --    2.37359   2.38400   2.39291   2.40124   2.40923
 Alpha virt. eigenvalues --    2.42162   2.43205   2.43472   2.44415   2.45170
 Alpha virt. eigenvalues --    2.46762   2.46934   2.47962   2.48088   2.48643
 Alpha virt. eigenvalues --    2.49574   2.50171   2.51596   2.51801   2.52853
 Alpha virt. eigenvalues --    2.53278   2.53726   2.54625   2.55268   2.56296
 Alpha virt. eigenvalues --    2.57150   2.57901   2.58176   2.59245   2.59641
 Alpha virt. eigenvalues --    2.61049   2.61601   2.62013   2.62639   2.62789
 Alpha virt. eigenvalues --    2.63551   2.63794   2.64687   2.64833   2.65563
 Alpha virt. eigenvalues --    2.66761   2.67340   2.67697   2.67950   2.68249
 Alpha virt. eigenvalues --    2.69302   2.69460   2.69554   2.70909   2.71125
 Alpha virt. eigenvalues --    2.71765   2.72094   2.72512   2.72844   2.73343
 Alpha virt. eigenvalues --    2.74007   2.74789   2.75122   2.75829   2.76149
 Alpha virt. eigenvalues --    2.76435   2.76902   2.77855   2.78277   2.78948
 Alpha virt. eigenvalues --    2.79302   2.79774   2.80689   2.81109   2.81839
 Alpha virt. eigenvalues --    2.82865   2.83466   2.83818   2.84325   2.84800
 Alpha virt. eigenvalues --    2.85444   2.85447   2.86056   2.86497   2.86857
 Alpha virt. eigenvalues --    2.88312   2.88753   2.88894   2.89402   2.89941
 Alpha virt. eigenvalues --    2.90596   2.91923   2.92321   2.93113   2.93699
 Alpha virt. eigenvalues --    2.94053   2.94714   2.94797   2.96292   2.97056
 Alpha virt. eigenvalues --    2.97737   2.98185   2.98383   2.99721   3.00536
 Alpha virt. eigenvalues --    3.01252   3.01753   3.01864   3.02339   3.03127
 Alpha virt. eigenvalues --    3.03889   3.04695   3.04983   3.05696   3.06181
 Alpha virt. eigenvalues --    3.06717   3.07482   3.08067   3.08680   3.09205
 Alpha virt. eigenvalues --    3.09421   3.09624   3.10140   3.11143   3.11877
 Alpha virt. eigenvalues --    3.12075   3.12814   3.13811   3.14353   3.15099
 Alpha virt. eigenvalues --    3.15595   3.15620   3.16032   3.16929   3.17221
 Alpha virt. eigenvalues --    3.17700   3.17950   3.19001   3.19670   3.20370
 Alpha virt. eigenvalues --    3.20806   3.21004   3.21501   3.21914   3.22301
 Alpha virt. eigenvalues --    3.22865   3.23556   3.24591   3.24833   3.25340
 Alpha virt. eigenvalues --    3.25842   3.26171   3.27197   3.27807   3.28413
 Alpha virt. eigenvalues --    3.29109   3.29234   3.29826   3.30658   3.30875
 Alpha virt. eigenvalues --    3.31241   3.31568   3.32057   3.32379   3.32875
 Alpha virt. eigenvalues --    3.33708   3.33742   3.34578   3.35236   3.35346
 Alpha virt. eigenvalues --    3.36186   3.36825   3.37480   3.38293   3.38996
 Alpha virt. eigenvalues --    3.39603   3.39676   3.40210   3.40446   3.41391
 Alpha virt. eigenvalues --    3.41419   3.41755   3.42658   3.43375   3.43494
 Alpha virt. eigenvalues --    3.44438   3.44679   3.45986   3.46253   3.46510
 Alpha virt. eigenvalues --    3.47003   3.47560   3.48535   3.49197   3.49449
 Alpha virt. eigenvalues --    3.50667   3.50958   3.51347   3.51908   3.52727
 Alpha virt. eigenvalues --    3.53053   3.53776   3.53886   3.54643   3.55383
 Alpha virt. eigenvalues --    3.56150   3.56549   3.57295   3.57926   3.58503
 Alpha virt. eigenvalues --    3.59039   3.59264   3.59935   3.60914   3.61068
 Alpha virt. eigenvalues --    3.62116   3.62710   3.63991   3.64457   3.64787
 Alpha virt. eigenvalues --    3.66207   3.66597   3.67783   3.68162   3.68435
 Alpha virt. eigenvalues --    3.69050   3.70200   3.70859   3.71714   3.72808
 Alpha virt. eigenvalues --    3.73918   3.76343   3.77128   3.77984   3.78405
 Alpha virt. eigenvalues --    3.79185   3.80307   3.81656   3.82659   3.83858
 Alpha virt. eigenvalues --    3.85634   3.85820   3.87254   3.88046   3.88762
 Alpha virt. eigenvalues --    3.89234   3.90801   3.91930   3.93027   3.94177
 Alpha virt. eigenvalues --    3.94774   3.95664   3.96639   3.96985   3.97653
 Alpha virt. eigenvalues --    4.00234   4.01589   4.01984   4.02417   4.03761
 Alpha virt. eigenvalues --    4.04808   4.05974   4.06323   4.07148   4.08155
 Alpha virt. eigenvalues --    4.08864   4.09425   4.11839   4.12500   4.12727
 Alpha virt. eigenvalues --    4.13785   4.13949   4.14666   4.15667   4.15886
 Alpha virt. eigenvalues --    4.16450   4.17579   4.17809   4.18240   4.18786
 Alpha virt. eigenvalues --    4.19322   4.19915   4.20412   4.21025   4.21180
 Alpha virt. eigenvalues --    4.21310   4.23230   4.23689   4.24688   4.25361
 Alpha virt. eigenvalues --    4.25665   4.26663   4.27174   4.28345   4.28729
 Alpha virt. eigenvalues --    4.30206   4.30886   4.31584   4.33245   4.34686
 Alpha virt. eigenvalues --    4.35279   4.36184   4.37473   4.38050   4.39127
 Alpha virt. eigenvalues --    4.40219   4.41200   4.42349   4.43256   4.44460
 Alpha virt. eigenvalues --    4.46761   4.47554   4.48203   4.49455   4.51457
 Alpha virt. eigenvalues --    4.53724   4.55319   4.56762   4.57315   4.57840
 Alpha virt. eigenvalues --    4.59326   4.60958   4.61880   4.62652   4.63506
 Alpha virt. eigenvalues --    4.64021   4.65215   4.66534   4.68861   4.70107
 Alpha virt. eigenvalues --    4.71568   4.74480   4.76340   4.78713   4.79879
 Alpha virt. eigenvalues --    4.81004   4.83200   4.84120   4.85134   4.86698
 Alpha virt. eigenvalues --    4.86973   4.88751   4.89466   4.90130   4.91363
 Alpha virt. eigenvalues --    4.93043   4.96131   4.98576   4.99288   5.04785
 Alpha virt. eigenvalues --    5.08392   5.10345   5.12478   5.13650   5.14842
 Alpha virt. eigenvalues --    5.17358   5.18363   5.21392   5.24462   5.29820
 Alpha virt. eigenvalues --    5.33422   5.34242   5.35352   5.39375   5.43368
 Alpha virt. eigenvalues --    5.48984   5.52719   5.54984   5.58115   5.60770
 Alpha virt. eigenvalues --    5.67837   5.71267   5.74365   6.05357  22.17666
 Alpha virt. eigenvalues --   22.37518  22.51547  22.60831  22.65741  22.67564
 Alpha virt. eigenvalues --   22.67968  22.71455  22.72036  22.76738  22.81911
 Alpha virt. eigenvalues --   22.83069  22.84799  22.89308  22.92300  22.94709
 Alpha virt. eigenvalues --   23.02030  23.13575  23.17644  23.19745  23.26797
 Alpha virt. eigenvalues --   23.40903  23.76841  23.94151
          Condensed to atoms (all electrons):
               1          2          3          4          5          6
     1  C    5.078224   0.010072  -0.065727   0.266812  -0.069811  -0.000338
     2  C    0.010072   5.165362   0.491739  -0.023971  -0.114517   0.386148
     3  C   -0.065727   0.491739   4.980672   0.525818  -0.045355  -0.024790
     4  C    0.266812  -0.023971   0.525818   4.932912   0.457353   0.001461
     5  C   -0.069811  -0.114517  -0.045355   0.457353   5.413140   0.000597
     6  H   -0.000338   0.386148  -0.024790   0.001461   0.000597   0.511972
     7  H   -0.006723  -0.028500   0.405303  -0.038455   0.009562  -0.003138
     8  H   -0.005135   0.000539   0.003512  -0.007664   0.358106   0.000082
     9  C   -0.000355   0.500212  -0.049271  -0.039024  -0.012445  -0.027109
    10  C    0.014546  -0.050398  -0.052230  -0.041334   0.378306   0.009495
    11  C    0.000002   0.023528  -0.000843  -0.000053   0.021171   0.002161
    12  C    0.000098  -0.124087   0.005795  -0.007316   0.031269  -0.000378
    13  C    0.000003  -0.020555   0.000542  -0.000170  -0.001186   0.001625
    14  C    0.000000   0.000454  -0.000181   0.000022   0.000069  -0.000134
    15  C    0.000000   0.000148  -0.000003  -0.000000   0.000039   0.000020
    16  C    0.000001  -0.002417   0.000092   0.000115  -0.002514  -0.000031
    17  H   -0.000001   0.002915  -0.000228   0.000021  -0.000063   0.003896
    18  H   -0.000000   0.000002   0.000001  -0.000000   0.000001   0.000010
    19  H   -0.000000   0.000058  -0.000003   0.000002  -0.000042   0.000001
    20  C    0.000003  -0.000039   0.000015  -0.000029   0.000670  -0.000001
    21  C   -0.000031   0.001102  -0.000270   0.000568  -0.011788   0.000011
    22  C   -0.000370   0.032701  -0.004591   0.013611  -0.141858  -0.001066
    23  C    0.000048   0.000080   0.000166   0.001732  -0.014205   0.000004
    24  C   -0.000005   0.000011   0.000001  -0.000118   0.000671  -0.000001
    25  H    0.000050  -0.000089  -0.000004   0.000152  -0.003119   0.000002
    26  H   -0.000008   0.000000  -0.000020   0.000080   0.001034   0.000001
    27  H   -0.000000   0.000131  -0.000072  -0.000017   0.001218   0.000002
    28  H    0.000053  -0.000090   0.000009   0.000201  -0.003211   0.000002
    29  H    0.000000   0.000003  -0.000000   0.000001  -0.000041   0.000000
    30  H    0.000000   0.000001  -0.000001   0.000002   0.000033   0.000000
    31  H    0.000000   0.000001  -0.000001   0.000005   0.000013   0.000000
    32  H   -0.000000   0.000003  -0.000000   0.000004  -0.000050   0.000000
    33  C   -0.000000  -0.000000  -0.000000  -0.000000  -0.000000   0.000000
    34  C   -0.000000  -0.000000   0.000000  -0.000000  -0.000000  -0.000000
    35  C    0.000000   0.000001  -0.000000   0.000000   0.000000   0.000000
    36  C    0.000000  -0.000009  -0.000001   0.000000  -0.000002   0.000001
    37  C    0.000000   0.000001   0.000000  -0.000000   0.000000   0.000000
    38  C    0.000000   0.000000  -0.000000  -0.000000   0.000000  -0.000000
    39  H   -0.000000   0.000000  -0.000000   0.000000  -0.000000  -0.000000
    40  H    0.000000   0.000000  -0.000000   0.000000   0.000000   0.000000
    41  H    0.000000   0.000000  -0.000000   0.000000   0.000000   0.000000
    42  H    0.000000   0.000000  -0.000000   0.000000  -0.000000   0.000000
    43  H    0.000000   0.000000  -0.000000   0.000000   0.000000   0.000000
    44  H    0.433245  -0.000790   0.009440  -0.055881  -0.016527   0.000010
    45  H    0.396522  -0.000997  -0.001989  -0.028911  -0.005730   0.000015
    46  H    0.430975   0.001901  -0.014946  -0.057185   0.016045  -0.000018
               7          8          9         10         11         12
     1  C   -0.006723  -0.005135  -0.000355   0.014546   0.000002   0.000098
     2  C   -0.028500   0.000539   0.500212  -0.050398   0.023528  -0.124087
     3  C    0.405303   0.003512  -0.049271  -0.052230  -0.000843   0.005795
     4  C   -0.038455  -0.007664  -0.039024  -0.041334  -0.000053  -0.007316
     5  C    0.009562   0.358106  -0.012445   0.378306   0.021171   0.031269
     6  H   -0.003138   0.000082  -0.027109   0.009495   0.002161  -0.000378
     7  H    0.514263  -0.000288   0.004793   0.000114   0.000053   0.000157
     8  H   -0.000288   0.487472   0.002440  -0.022140   0.000448  -0.000744
     9  C    0.004793   0.002440   5.099421   0.377397  -0.079295   0.292766
    10  C    0.000114  -0.022140   0.377397   5.419506  -0.101356  -0.090276
    11  C    0.000053   0.000448  -0.079295  -0.101356   5.562133   0.321983
    12  C    0.000157  -0.000744   0.292766  -0.090276   0.321983   5.158276
    13  C    0.000015   0.000053  -0.151347   0.027331  -0.006957   0.482184
    14  C    0.000000  -0.000003   0.008296  -0.001087  -0.068057  -0.055273
    15  C   -0.000000   0.000002  -0.007922   0.000619   0.012270  -0.052806
    16  C    0.000000  -0.000021   0.037169   0.028630   0.162080   0.012115
    17  H    0.000012   0.000000  -0.002067   0.001598   0.012630  -0.026624
    18  H    0.000000   0.000000   0.000006   0.000075  -0.001136   0.003391
    19  H    0.000000  -0.000001   0.000266  -0.000777  -0.022519  -0.006861
[...]
 14,0.00000501,-0.00000179,0.00000149,-0.00000244,-0.00000023,-0.000000
 53,-0.00000151,-0.00000235,0.00000280,0.00000459,0.00000253,-0.0000005
 9,-0.00000454,0.00000264,0.00000023,0.00000434,0.00000182,-0.00000049,
 0.00000467,0.00000059,-0.00000409,-0.00000373,-0.00000236,0.00407150,-
 0.01840558,-0.02169777,-0.00445672,-0.00303954,-0.00065628,-0.00154974
 ,-0.00001541,0.00017560,-0.00388183,0.00035217,0.00340042,0.00572976,0
 .01790285,0.02052111,-0.05992537,-0.01079971,-0.00737304,0.00083222,0.
 00097531,-0.00001613,0.00001429,-0.00095749,-0.00106495,0.00009891,0.0
 0016593,-0.00012201,0.00080696,0.00023488,-0.00089090,0.05806751,-0.00
 000310,0.00000076,-0.00000470,-0.00000477,-0.00000637,0.00000005,0.000
 00212,-0.00001907,-0.00000418,0.00001226,0.00000866,0.00000080,-0.0000
 0320,0.00000968,0.00000213,-0.00000255,0.00000065,0.00000115,0.0000030
 7,-0.00000014,-0.00000258,-0.00000055,-0.00000317,-0.00000114,-0.00001
 111,0.00001646,0.00001965,0.00001723,-0.00002517,-0.00001289,-0.000014
 41,-0.00001720,-0.00000030,0.00000651,-0.00000723,-0.00001045,-0.00000
 538,0.00001152,-0.00000193,0.00001881,-0.00007995,0.00003143,-0.000285
 11,-0.00017817,-0.00017409,0.00010071,0.00005861,0.00002524,0.00000950
 ,0.00000216,-0.00000604,-0.00004442,0.00002445,0.00003248,-0.00002716,
 -0.00001131,0.00001651,0.00000144,-0.00000335,0.00000108,0.00000081,0.
 00000168,-0.00001314,-0.00000141,0.00001825,0.00000029,0.00001045,-0.0
 0000414,0.00000399,-0.00000695,0.00000554,-0.00000146,0.00000060,-0.00
 000613,0.00000152,0.00000035,0.00000478,-0.00000044,-0.00000036,0.0000
 0172,0.00000474,-0.00000091,-0.00000549,-0.00000354,-0.00000254,0.0000
 0682,-0.00000415,0.00000047,-0.00000706,-0.00000168,0.00000071,-0.0000
 0512,-0.00000019,0.00000553,0.00000105,0.00000305,0.00116281,-0.004665
 85,-0.00952602,-0.00354898,0.00413568,-0.00303635,0.00012886,-0.000099
 72,0.00072170,0.00070957,0.00496757,-0.00346560,-0.00179471,-0.0013647
 1,-0.00499445,-0.01038962,-0.16867139,-0.15074294,0.00039125,-0.001885
 52,0.00234143,0.00009730,-0.00031142,-0.00048993,0.00014443,-0.0006994
 8,0.00052877,0.00067732,-0.00203965,0.00230044,0.01263846,0.17084580,-
 0.00000355,0.00000088,-0.00000667,-0.00001426,-0.00001179,0.00000204,0
 .00000585,-0.00002511,-0.00000697,0.00001165,0.00001222,0.00000144,0.0
 0000042,0.00001311,-0.00000169,-0.00000152,0.00000241,0.00000221,0.000
 00517,-0.00000087,-0.00000244,-0.00000048,-0.00000233,0.00000051,-0.00
 000245,0.00001706,-0.00000420,0.00001632,-0.00002726,-0.00001264,0.000
 06234,-0.00003862,0.00001079,-0.00001535,-0.00000882,0.00000313,0.0000
 3087,-0.00000686,0.00001980,0.00006301,-0.00001729,-0.00007866,-0.0004
 3722,-0.00049602,-0.00022944,0.00019206,0.00002329,-0.00018088,0.00002
 069,0.00000074,-0.00001167,0.00001929,-0.00002187,-0.00004095,-0.00000
 628,0.00002396,-0.00002202,-0.00000174,0.00000185,0.00000478,0.0000017
 8,0.00000063,-0.00000861,0.00001438,0.00002013,0.00000381,0.00000758,-
 0.00000218,0.00000403,-0.00000603,0.00000419,-0.00000030,0.00000209,-0
 .00000729,0.00000009,-0.00000267,0.00000333,-0.00000033,-0.00000109,0.
 00000321,0.00000355,0.00000040,-0.00000641,-0.00000398,0.00000136,0.00
 000307,-0.00000567,0.00000068,-0.00000558,-0.00000159,0.00000070,-0.00
 000593,-0.00000158,0.00000637,0.00000128,0.00000275,0.00172700,-0.0042
 8309,-0.00223580,-0.00093960,-0.00333438,0.00369664,0.00007255,0.00079
 378,0.00015457,0.00350420,-0.00319968,0.00311121,-0.00276362,-0.009955
 10,-0.00783613,-0.00755770,-0.15084336,-0.21270994,-0.00068103,0.00215
 205,-0.00123205,0.00013641,-0.00023193,-0.00019421,-0.00012540,0.00051
 488,-0.00053154,-0.00026707,0.00248230,-0.00120875,0.00691514,0.166463
 71,0.21954820,-0.04871721,-0.00738591,0.00310656,0.00084934,0.00042257
 ,0.00033078,-0.00251900,0.00101026,0.00179555,0.00021764,0.01944427,-0
 .00904058,0.00126260,0.00104322,0.00010798,-0.00014757,0.00014056,0.00
 010812,0.00009727,0.00034221,-0.00013733,-0.00042421,-0.00049771,0.000
 20640,-0.00020922,0.00004208,-0.00002076,0.00009005,0.00003714,-0.0002
 0159,-0.00009443,0.00006845,0.00005729,0.00014504,-0.00009512,0.000002
 93,-0.00000210,-0.00000882,0.00000730,-0.00005372,-0.00004615,-0.00000
 637,-0.00001750,0.00006743,0.00002665,0.00004397,-0.00003788,-0.000058
 88,0.00000764,-0.00001152,0.00001015,-0.00000335,0.00000359,0.00000186
 ,-0.00001007,0.00000068,0.00000555,0.00000016,-0.00000222,-0.00000197,
 -0.00000728,0.00003396,0.00000178,0.00001121,-0.00001908,0.00001734,-0
 .00001108,0.00002373,0.00001710,-0.00000032,-0.00000224,-0.00000038,0.
 00000977,-0.00002505,0.00001213,0.00000511,-0.00000495,-0.00001250,0.0
 0000956,-0.00000472,0.00000086,-0.00001024,-0.00002247,-0.00002089,0.0
 0000927,-0.00000011,-0.00000673,-0.00000233,-0.00000295,0.00000310,-0.
 00000453,-0.00000289,-0.00000042,0.00001085,-0.00000059,-0.00000432,-0
 .00000962,0.00000237,0.00000413,0.00000213,-0.00000188,0.00000274,-0.0
 0000998,0.00000669,0.00000966,0.00003055,-0.00001336,-0.00001118,-0.00
 001353,0.00000201,0.00000804,0.00000053,0.00000104,-0.00000549,-0.0000
 0098,-0.00000008,0.00000074,-0.00000325,-0.00000004,0.00000039,0.00000
 159,0.00000117,-0.00000128,0.00000069,-0.00000280,-0.00000161,-0.00000
 104,0.00000128,0.00000168,0.04885054,-0.00606829,-0.27791761,0.0962619
 4,-0.00093255,-0.00047125,-0.00028568,0.00344915,-0.00137803,-0.001390
 05,-0.00104855,-0.01830370,0.00583598,-0.00266608,0.00123052,0.0006183
 9,0.00017784,-0.00018150,-0.00013815,0.00022936,0.00022595,0.00022989,
 0.00088774,0.00045345,0.00039203,0.00020664,0.00052808,0.00007937,0.00
 011825,-0.00040130,-0.00095771,0.00008915,-0.00003743,-0.00006070,0.00
 006584,0.00003725,0.00011754,-0.00001455,0.00003300,0.00001554,0.00005
 344,0.00004184,-0.00002839,0.00000211,-0.00005176,-0.00001145,-0.00002
 489,0.00001714,0.00002556,-0.00000700,0.00001530,0.00000818,0.00000416
 ,-0.00000596,-0.00000391,0.00001372,0.00000116,-0.00000429,-0.00000763
 ,0.00002013,-0.00000868,0.00004204,-0.00005591,0.00001218,-0.00002499,
 -0.00001100,0.00004961,0.00002022,-0.00002170,-0.00004822,0.00000429,0
 .00000485,0.00001784,-0.00000246,0.00003225,0.00000824,0.,-0.00000655,
 -0.00000228,-0.00000691,0.00000147,-0.00000363,-0.00000329,0.00001061,
 0.00001090,-0.00000665,-0.00000303,0.00000207,0.00001110,0.00001154,-0
 .00000291,0.00000897,0.00000997,-0.00000429,-0.00000572,-0.00000025,-0
 .00000227,0.00001053,-0.00000211,-0.00000788,-0.00000239,0.00000068,-0
 .00000384,0.00001322,-0.00000858,-0.00000955,-0.00003279,0.00001140,0.
 00001492,0.00001639,0.00000091,-0.00001070,0.00000242,-0.00000126,0.00
 000569,0.00000171,-0.00000108,-0.00000046,0.00000388,0.00000010,-0.000
 00020,-0.00000443,-0.00000120,0.00000090,-0.00000109,0.00000291,0.0000
 0466,0.00000165,-0.00000212,-0.00000209,0.00493231,0.30277367,0.002476
 06,0.09854534,-0.08426604,0.00014175,-0.00082287,-0.00069893,0.0022817
 3,-0.00103548,-0.00077144,-0.00033262,-0.01824136,0.00542897,-0.000392
 21,-0.00043445,0.00034086,0.00010285,-0.00012900,-0.00016287,0.0001297
 9,-0.00004317,0.00007236,-0.00007810,0.00030582,0.00020950,-0.00032097
 ,-0.00037222,0.00017541,-0.00028694,0.00021524,0.00008891,-0.00003838,
 -0.00002484,0.00000674,0.00003859,0.00001062,-0.00003461,-0.00000156,0
 .00000017,-0.00000558,-0.00000174,-0.00000352,0.00001204,-0.00000279,0
 .00001284,0.00000294,0.00002317,0.00000004,0.00000628,-0.00000517,0.00
 000776,-0.00000296,0.00000038,0.00000038,0.00000063,0.00000029,-0.0000
 0131,0.00000052,0.00000084,0.00001043,-0.00000014,0.00000590,-0.000012
 55,-0.00000184,-0.00000715,0.00006237,-0.00003825,-0.00000641,0.000029
 12,0.00001567,0.00000170,-0.00000675,0.00000122,0.00001120,0.00001343,
 0.00001299,0.00000372,-0.00000835,-0.00000864,0.00000196,-0.00000168,-
 0.00000337,0.00000642,-0.00000448,-0.00000162,-0.00000465,-0.00000154,
 -0.00000112,-0.00000010,-0.00000206,0.00000249,-0.00000768,-0.00000444
 ,-0.00000031,0.00000111,0.00000112,-0.00000456,-0.00000213,0.00000028,
 0.00000136,0.00000111,-0.00000060,0.00000072,-0.00000339,0.00000158,0.
 00000215,0.00000569,-0.00000057,-0.00000873,-0.00000213,0.00000064,0.0
 0000220,-0.00000026,0.00000015,-0.00000159,-0.00000033,0.00000028,0.00
 000016,-0.00000093,-0.00000002,0.,0.00000096,0.00000016,-0.00000023,0.
 00000014,-0.00000078,-0.00000069,0.,0.00000011,0.00000052,-0.00578244,
 -0.10383740,0.09084172,-0.05974189,-0.00384325,-0.06070891,-0.00119394
 ,0.00022865,-0.00005568,0.00009007,-0.00108958,-0.00010203,0.00472667,
 0.00210869,0.02306006,-0.00100623,0.00117927,0.00023061,-0.00003037,0.
 00004616,0.00001856,0.00019290,0.00005135,0.00003623,0.00005725,-0.000
 37701,0.00039847,0.00042969,0.00083579,0.00009941,-0.00016604,-0.00048
 593,-0.00125512,-0.00012941,0.00009308,0.00008692,0.00009440,-0.000025
 81,-0.00007873,-0.00003164,-0.00002956,-0.00000300,-0.00004857,-0.0000
 5513,0.00003846,-0.00002639,0.00007852,0.00003079,0.00008957,-0.000031
 68,0.00002367,-0.00000329,-0.00000226,-0.00001507,-0.00000609,0.000007
 59,0.00000510,-0.00001316,-0.00000256,0.00000770,0.00000589,0.00000241
 ,0.00001284,-0.00002634,-0.00000476,-0.00001393,-0.00003563,0.00001107
 ,0.00000904,0.00004919,0.00003405,0.00002880,-0.00000748,-0.00000463,-
 0.00000459,0.00000501,-0.00000363,-0.00000145,-0.00000461,0.00000523,-
 0.00000346,-0.00000767,0.00001481,0.00000696,0.00001299,-0.00003034,-0
 .00000032,-0.00000223,0.00000129,-0.00000742,-0.00000606,-0.00000757,0
 .00000008,-0.00000731,-0.00000938,0.00000061,0.00000882,0.00000153,-0.
 00000219,-0.00001527,0.00000403,0.00000818,0.00000458,-0.00000342,0.00
 000458,-0.00001954,0.00001170,0.00001542,0.00003642,-0.00001186,-0.000
 04270,-0.00001896,0.00000123,0.00001237,-0.00000055,-0.00000053,-0.000
 00779,-0.00000213,0.00000065,0.00000112,-0.00000525,-0.00000034,0.0000
 0067,0.00000415,0.00000179,-0.00000083,0.00000143,-0.00000364,-0.00000
 422,-0.00000176,0.00000266,0.00000316,-0.00048906,0.00014314,0.0018064
 1,0.06396843,-0.00453223,-0.04494322,-0.01437915,-0.00017731,-0.000099
 56,0.00141748,0.00171190,-0.00110258,-0.00041346,-0.00338939,-0.002318
 64,-0.02058357,-0.00157581,0.00027428,0.00073267,-0.00000353,-0.000065
 98,-0.00008528,-0.00042748,-0.00007684,-0.00050859,-0.00007127,0.00013
 807,-0.00012521,0.00064213,0.00075138,-0.00028394,0.00066874,-0.001375
 23,-0.00002605,0.00013706,-0.00002486,-0.00007806,-0.00008881,-0.00001
 266,-0.00001446,0.00000581,0.00005772,0.00002475,0.00007893,0.00005057
 ,-0.00004985,0.00000619,-0.00008875,-0.00002395,-0.00007791,0.00001919
 ,0.00000597,-0.00000023,-0.00000323,0.00001049,0.00000676,-0.00000838,
 -0.00000588,0.00000971,0.00000482,-0.00000470,0.00000077,0.00000522,-0
 .00000059,0.00000206,-0.00000506,0.00000282,-0.00004128,-0.00011775,0.
 00004785,-0.00004050,0.00000569,0.00000320,0.00000675,0.00000060,0.000
 00095,0.00000060,0.00001209,0.00000939,0.00000510,-0.00000977,0.000000
 50,0.00000471,-0.00000924,-0.00000940,-0.00000748,0.00000883,0.0000056
 5,-0.00000165,-0.00000485,0.00000186,0.00000423,0.00000806,0.00000186,
 -0.00000024,0.00000732,0.00000049,-0.00000291,-0.00000340,-0.00000453,
 0.00001518,-0.00000394,-0.00000856,-0.00000364,0.00000104,-0.00000527,
 0.00001809,-0.00001224,-0.00001255,-0.00003727,0.00001011,0.00003488,0
 .00002145,-0.00000039,-0.00001232,0.00000146,-0.00000066,0.00000795,0.
 00000240,-0.00000059,-0.00000141,0.00000480,0.00000114,-0.00000095,-0.
 00000513,-0.00000080,-0.00000014,-0.00000185,0.00000469,0.00000418,0.0
 0000204,-0.00000262,-0.00000366,0.00820398,0.00254983,0.02979616,0.001
 44959,0.04750560,-0.06375405,-0.01214844,-0.29542620,0.00097418,-0.000
 43608,0.00010633,0.00063169,0.00103307,0.00033014,-0.00014882,-0.00325
 368,-0.01369977,-0.00029977,-0.00091253,0.00080013,0.00005447,-0.00006
 746,-0.00002419,-0.00019602,-0.00000325,-0.00045160,-0.00011685,0.0001
 7497,-0.00061554,-0.00044636,0.00006620,0.00006993,0.00067559,-0.00051
 608,0.00044131,0.00006244,-0.00007054,-0.00003879,0.00007008,-0.000053
 11,-0.00015033,-0.00000528,0.00008956,0.00002967,0.00007955,0.00003789
 ,-0.00003413,-0.00001091,-0.00004804,-0.00000806,-0.00003003,-0.000013
 83,-0.00001453,-0.00000590,0.00000551,0.00000480,0.00000620,-0.0000077
 2,-0.00000429,0.00000976,0.00000387,-0.00000790,-0.00000652,-0.0000013
 8,-0.00001031,0.00001830,-0.00000004,0.00001370,-0.00001709,-0.0000632
 3,0.00002010,-0.00001335,-0.00003245,-0.00004050,0.00000603,0.00001006
 ,0.00000868,-0.00000925,-0.00000584,-0.00000146,0.00000138,-0.00000115
 ,0.00000744,0.00000472,-0.00001045,-0.00000204,-0.00001485,0.00002125,
 0.00000159,0.00000510,-0.00000160,0.00000439,0.00000703,0.00000925,-0.
 00000132,0.00001193,0.00001286,-0.00000134,-0.00000367,-0.00000396,0.0
 0000200,0.00001296,-0.00000473,-0.00000650,-0.00000182,-0.00000095,-0.
 00000648,0.00001385,-0.00001242,-0.00001153,-0.00002714,0.00000644,0.0
 0002499,0.00001753,0.00000078,-0.00000906,0.00000334,0.00000201,0.0000
 0519,0.00000167,0.00000003,-0.00000140,0.00000454,0.00000091,-0.000001
 08,-0.00000573,-0.00000056,0.00000063,-0.00000124,0.00000496,0.0000043
 6,0.00000181,-0.00000189,-0.00000172,-0.00321029,-0.00064882,-0.011542
 38,0.06630303,0.01670317,0.32173143,-0.28235371,-0.08963443,-0.0194891
 4,-0.00017604,0.00028910,0.00069118,0.00140586,-0.00261461,-0.00030496
 ,-0.01887734,-0.00786635,-0.00099938,-0.00188176,0.00347514,0.00139596
 ,-0.00003401,0.00002501,-0.00003151,0.00028714,0.00100361,-0.00046367,
 0.00007131,0.00011751,-0.00025850,0.00041645,0.00041041,-0.00018089,-0
 .00015501,-0.00120370,0.00045393,-0.00012252,-0.00003546,0.00005805,0.
 00003871,0.00010542,-0.00007393,-0.00003125,-0.00002956,0.00001000,-0.
 00003396,-0.00000701,0.00002041,-0.00001440,0.00002978,0.00001261,0.00
 001698,0.00005755,-0.00002932,0.00000229,0.00000487,-0.00000238,-0.000
 00605,0.00000843,0.00000441,-0.00000330,-0.00000693,-0.00000121,0.0000
 0024,-0.00000205,0.00000709,0.00000767,0.00001833,-0.00004617,-0.00000
 659,0.00023510,0.00007055,0.00001390,-0.00001493,0.00002946,-0.0000055
 9,0.00000312,-0.00000985,0.00000625,0.00001593,-0.00001734,-0.00000588
 ,0.00000696,0.00001052,-0.00000586,0.00000377,0.00000078,0.00001335,0.
 00001901,0.00000966,-0.00000819,0.00000327,0.00000379,-0.00000716,-0.0
 0001224,0.00000106,-0.00000803,-0.00001117,0.00000183,-0.00000821,0.00
 000173,0.00000832,-0.00001130,0.00000339,0.00000723,0.00000481,0.00000
 077,0.00000317,-0.00001510,0.00000741,0.00000543,0.00004016,-0.0000043
 9,-0.00001260,-0.00002097,0.00000065,0.00001106,-0.00000098,0.00000178
 ,-0.00000514,-0.00000262,0.00000075,0.00000175,-0.00000368,-0.00000124
 ,0.00000025,0.00000656,0.00000012,0.00000188,0.00000174,-0.00000375,-0
 .00000428,-0.00000203,0.00000271,0.00000391,0.00110610,0.00035098,0.00
 023630,-0.00673060,-0.00252452,-0.00065223,0.30709263,-0.09214187,-0.0
 8367355,-0.00682951,0.00006540,0.00025478,0.00035054,0.00119122,0.0009
 5915,-0.00052723,0.01919423,0.00710108,0.00250531,0.00136277,-0.002340
 79,-0.00158655,-0.00004600,0.00002552,-0.00000038,-0.00038380,-0.00033
 173,-0.00013069,0.00036293,0.00016069,0.00001165,0.00014658,-0.0001274
 9,0.00003839,0.00039906,0.00074218,-0.00062778,0.00012510,-0.00000622,
 -0.00005569,-0.00015000,0.00003751,-0.00006545,0.00000895,0.00000649,-
 0.00000457,0.00002418,0.00001480,0.00000906,0.00001683,-0.00003110,-0.
 00001970,-0.00000981,-0.00001984,0.00006472,-0.00000295,-0.00000482,-0
 .00001110,0.00000136,-0.00000120,-0.00000103,0.00000328,0.00000055,-0.
 00000194,0.00000241,-0.00000034,0.00000469,-0.00001501,-0.00003277,0.0
 0001960,0.00002510,-0.00017825,-0.00010315,-0.00000082,-0.00001521,-0.
 00001614,0.00000113,0.00000238,-0.00000131,-0.00001159,0.00001112,-0.0
 0000218,-0.00000110,0.00000436,0.00000463,0.00000031,0.00000220,0.0000
 0142,0.00000118,0.00001042,0.00000831,-0.00000476,0.00000097,0.0000039
 1,0.00000258,0.00000293,-0.00000278,0.00000560,0.00000284,-0.00000026,
 -0.00000531,0.00000109,0.00000239,0.00000385,-0.00000061,-0.00000135,-
 0.00000035,0.00000057,-0.00000099,0.00000305,-0.00000250,-0.00000389,-
 0.00001764,0.00000331,-0.00000215,0.00000765,-0.00000146,-0.00000337,-
 0.00000084,-0.00000147,0.00000182,0.00000006,0.00000017,-0.00000017,0.
 00000119,-0.00000010,-0.00000041,-0.00000043,-0.00000024,0.00000070,-0
 .00000021,0.00000123,-0.00000011,0.00000060,-0.00000025,-0.00000052,-0
 .02764245,-0.00915068,-0.00402459,-0.00029139,-0.00112502,0.00013746,0
 .09776976,0.08769931,-0.02164230,-0.00727015,-0.04621247,-0.00022931,0
 .00008933,-0.00019822,-0.00014444,0.00094379,0.00031827,0.01730411,0.0
 0640127,-0.00092456,0.00174532,-0.00243377,-0.00041511,-0.00003264,0.0
 0001259,-0.00000631,-0.00020768,-0.00013257,0.00040978,-0.00007147,-0.
 00016489,0.00006915,0.00012914,0.00031484,0.00008314,0.00079898,0.0000
 3637,-0.00064293,0.00005740,0.00004291,-0.00002284,0.00004438,-0.00006
 031,-0.00000676,-0.00000357,0.00001433,0.00000176,0.00000760,-0.000010
 74,-0.00000519,-0.00000119,0.00000608,0.00000264,0.00001165,-0.0000404
 8,0.00000300,-0.00000029,-0.00000470,-0.00000027,0.00000104,-0.0000008
 3,0.00000031,-0.00000002,0.00000125,0.00000109,-0.00000094,0.00000778,
 -0.00000589,0.00001184,-0.00000587,0.00001505,-0.00003903,-0.00019013,
 -0.00014460,-0.00001251,-0.00000809,-0.00001002,0.00000151,0.00000502,
 0.00000193,-0.00000333,-0.00000255,0.00000858,0.00000472,-0.00000350,-
 0.00000691,0.00000590,-0.00000489,0.00000005,-0.00000677,0.00000385,-0
 .00000669,0.00000282,-0.00000095,-0.00000034,0.00000506,0.00000404,-0.
 00000022,0.00000462,0.00000395,-0.00000201,0.00000090,-0.00000074,-0.0
 0000021,-0.00000047,-0.00000002,-0.00000048,0.00000044,-0.00000086,-0.
 00000015,-0.00000111,-0.00000010,0.00000075,-0.00000079,-0.00000388,-0
 .00000607,0.00000190,0.00000156,0.00000009,0.00000061,-0.00000005,-0.0
 0000129,-0.00000019,-0.00000010,0.00000023,-0.00000014,-0.00000017,-0.
 00000009,-0.00000063,0.00000015,-0.00000012,0.00000008,-0.00000037,0.0
 0000057,0.00000048,-0.00000017,0.00000038,0.01267823,0.00376212,0.0003
 2956,-0.02994179,-0.01217073,-0.00149436,0.01952190,0.01086038,0.04886
 778\\-0.00000162,-0.00000903,-0.00002842,-0.00002760,-0.00000204,0.000
 01073,0.00001776,-0.00002748,-0.00001366,-0.00001097,0.00003261,0.0000
 2030,0.00000215,-0.00000062,-0.00000329,0.00000282,0.00000472,-0.00000
 354,-0.00000679,0.00000977,0.00000105,0.00000174,0.00000029,-0.0000015
 2,0.00002329,0.00000459,-0.00001022,0.00000135,-0.00001194,-0.00000675
 ,-0.00002551,-0.00003648,0.00000371,-0.00001269,0.00005325,0.00001657,
 0.00003074,-0.00002967,-0.00002254,-0.00005224,-0.00001630,0.00002192,
 0.00003407,0.00003860,-0.00000492,0.00002562,-0.00001298,-0.00001841,-
 0.00000228,0.00000204,-0.00000225,0.00000718,0.00000233,-0.00000681,-0
 .00000613,-0.00000536,0.00000433,0.00000414,0.00000503,0.00001196,-0.0
 0000856,-0.00001148,-0.00001648,-0.00000203,0.00002536,0.00000451,0.00
 000822,-0.00001702,0.00001830,-0.00000243,0.00000557,-0.00000524,0.000
 01033,0.00000204,0.00001003,0.00000558,0.00000250,0.00000356,0.0000003
 8,0.00000027,-0.00000467,0.00000198,0.00000429,-0.00000945,-0.00000118
 ,-0.00000021,0.00000050,0.00000249,0.00000056,0.00000261,0.00000051,0.
 00000028,0.00000243,0.00000031,-0.00000034,0.00000509,0.00001055,-0.00
 000432,-0.00000696,-0.00000578,0.00000007,0.00000598,0.00001712,0.0000
 0009,-0.00000150,-0.00003356,-0.00000609,0.00000757,0.00000785,-0.0000
 0637,-0.00001170,-0.00000873,0.00000278,0.00000391,-0.00000450,-0.0000
 0088,0.00000173,-0.00000073,0.00000008,0.00000164,-0.00000342,-0.00000
 058,0.00000146,-0.00000309,0.00000035,-0.00000052,-0.00000367,-0.00000
 176,-0.00000085,0.00000479,0.00000282,0.00000793,0.00000040,-0.0000000
 4,0.00000766,0.00000215,0.00000067,0.00000423\\\@
 The archive entry for this job was punched.


 THERE'S NOTHING WRONG WITH FOLLOWING A TRAIN OF THOUGHT...
 AS LONG AS IT ULTIMATELY PULLS INTO THE STATION.
 Job cpu time:       7 days  0 hours 44 minutes 40.2 seconds.
 Elapsed time:       0 days  5 hours 22 minutes  5.6 seconds.
 File lengths (MBytes):  RWF=   4461 Int=      0 D2E=      0 Chk=     62 Scr=      1
 Normal termination of Gaussian 16 at Wed Nov  1 08:41:11 2023.
