 Entering Gaussian System, Link 0=g16
 Input=ph_fluorene_cp_tbutyl_10_1_m062x.com
 Output=ph_fluorene_cp_tbutyl_10_1_m062x.log
 Initial command:
 /arc/software/Gaussian/g16.c01/l1.exe "/tmp/Gau-62198.inp" -scrdir="/tmp/"
 Entering Link 1 = /arc/software/Gaussian/g16.c01/l1.exe PID=     62199.
  
 Copyright (c) 1988-2019, Gaussian, Inc.  All Rights Reserved.
  
 This is part of the Gaussian(R) 16 program.  It is based on
 the Gaussian(R) 09 system (copyright 2009, Gaussian, Inc.),
 the Gaussian(R) 03 system (copyright 2003, Gaussian, Inc.),
 the Gaussian(R) 98 system (copyright 1998, Gaussian, Inc.),
 the Gaussian(R) 94 system (copyright 1995, Gaussian, Inc.),
 the Gaussian 92(TM) system (copyright 1992, Gaussian, Inc.),
 the Gaussian 90(TM) system (copyright 1990, Gaussian, Inc.),
 the Gaussian 88(TM) system (copyright 1988, Gaussian, Inc.),
 the Gaussian 86(TM) system (copyright 1986, Carnegie Mellon
 University), and the Gaussian 82(TM) system (copyright 1983,
 Carnegie Mellon University). Gaussian is a federally registered
 trademark of Gaussian, Inc.
  
 This software contains proprietary and confidential information,
 including trade secrets, belonging to Gaussian, Inc.
  
 This software is provided under written license and may be
 used, copied, transmitted, or stored only in accord with that
 written license.
  
 The following legend is applicable only to US Government
 contracts under FAR:
  
                    RESTRICTED RIGHTS LEGEND
  
 Use, reproduction and disclosure by the US Government is
 subject to restrictions as set forth in subparagraphs (a)
 and (c) of the Commercial Computer Software - Restricted
 Rights clause in FAR 52.227-19.
  
 Gaussian, Inc.
 340 Quinnipiac St., Bldg. 40, Wallingford CT 06492
  
  
 ---------------------------------------------------------------
 Warning -- This program may not be used in any manner that
 competes with the business of Gaussian, Inc. or will provide
 assistance to any competitor of Gaussian, Inc.  The licensee
 of this program is prohibited from giving any competitor of
 Gaussian, Inc. access to this program.  By using this program,
 the user acknowledges that Gaussian, Inc. is engaged in the
 business of creating and licensing software in the field of
 computational chemistry and represents and warrants to the
 licensee that it is not a competitor of Gaussian, Inc. and that
 it will not use this program in any manner prohibited above.
 ---------------------------------------------------------------
  

 Cite this work as:
 Gaussian 16, Revision C.01,
 M. J. Frisch, G. W. Trucks, H. B. Schlegel, G. E. Scuseria, 
 M. A. Robb, J. R. Cheeseman, G. Scalmani, V. Barone, 
 G. A. Petersson, H. Nakatsuji, X. Li, M. Caricato, A. V. Marenich, 
 J. Bloino, B. G. Janesko, R. Gomperts, B. Mennucci, H. P. Hratchian, 
 J. V. Ortiz, A. F. Izmaylov, J. L. Sonnenberg, D. Williams-Young, 
 F. Ding, F. Lipparini, F. Egidi, J. Goings, B. Peng, A. Petrone, 
 T. Henderson, D. Ranasinghe, V. G. Zakrzewski, J. Gao, N. Rega, 
 G. Zheng, W. Liang, M. Hada, M. Ehara, K. Toyota, R. Fukuda, 
 J. Hasegawa, M. Ishida, T. Nakajima, Y. Honda, O. Kitao, H. Nakai, 
 T. Vreven, K. Throssell, J. A. Montgomery, Jr., J. E. Peralta, 
 F. Ogliaro, M. J. Bearpark, J. J. Heyd, E. N. Brothers, K. N. Kudin, 
 V. N. Staroverov, T. A. Keith, R. Kobayashi, J. Normand, 
 K. Raghavachari, A. P. Rendell, J. C. Burant, S. S. Iyengar, 
 J. Tomasi, M. Cossi, J. M. Millam, M. Klene, C. Adamo, R. Cammi, 
 J. W. Ochterski, R. L. Martin, K. Morokuma, O. Farkas, 
 J. B. Foresman, and D. J. Fox, Gaussian, Inc., Wallingford CT, 2019.
 
 ******************************************
 Gaussian 16:  ES64L-G16RevC.01  3-Jul-2019
                 3-Nov-2023 
 ******************************************
 %nprocshared=32
 Will use up to   32 processors via shared memory.
 %mem=8000MB
 %chk=ph_fluorene_cp_tbutyl_10_1_m062x.chk
 -----------------------------------------
 # opt freq=noraman m062x def2tzvp pop=nbo
 -----------------------------------------
 1/18=20,19=15,26=3,38=1/1,3;
 2/9=110,12=2,17=6,18=5,40=1/2;
 3/5=44,7=101,11=2,25=1,30=1,71=1,74=-55/1,2,3;
 4//1;
 5/5=2,38=5/2;
 6/7=2,8=2,9=2,10=2,28=1,40=1/1,7;
 7//1,2,3,16;
 1/18=20,19=15,26=3/3(2);
 2/9=110/2;
 99//99;
 2/9=110/2;
 3/5=44,7=101,11=2,25=1,30=1,71=1,74=-55/1,2,3;
 4/5=5,16=3,69=1/1;
 5/5=2,38=5/2;
 7//1,2,3,16;
 1/18=20,19=15,26=3/3(-5);
 2/9=110/2;
 6/7=2,8=2,9=2,10=2,19=2,28=1,40=1/1,7;
 99/9=1/99;
 ------------
 Structure697
 ------------
 Symbolic Z-matrix:
 Charge =  0 Multiplicity = 1
 C                    -4.0758   -5.3354    6.5434 
 C                    -6.2157   -7.2608    9.1365 
 C                    -5.7814   -6.2673    8.2584 
 C                    -4.5908   -6.417     7.5256 
 C                    -3.8527   -7.5987    7.7041 
 H                    -7.1327   -7.1198    9.6882 
 H                    -6.3909   -5.3829    8.1641 
 H                    -2.9338   -7.7425    7.1576 
 C                    -5.4631   -8.4228    9.2939 
 C                    -4.2826   -8.5997    8.5796 
 C                    -4.6234   -10.4917   9.9224 
 C                    -5.6763   -9.6068    10.1356 
 C                    -6.6968   -9.9256    11.0297 
 C                    -6.661    -11.1416   11.7132 
 C                    -5.6142   -12.0539   11.5141 
 C                    -4.5991   -11.7096   10.6091 
 H                    -7.5168   -9.244     11.1964 
 H                    -7.4657   -11.3809   12.3921 
 H                    -3.7763   -12.3894   10.448 
 C                    -1.2268   -10.3086   8.407 
 C                    -2.1901   -9.7911    9.4779 
 C                    -3.6273   -9.9369    8.9095 
 C                    -3.4391   -10.8507   7.6681 
 C                    -2.0203   -11.4219   7.7356 
 H                    -1.959    -8.7656    9.7706 
 H                    -2.0736   -10.3937   10.3803 
 H                    -4.1907   -11.6399   7.6132 
 H                    -3.5457   -10.2724   6.7488 
 H                    -0.2837   -10.6609   8.8275 
 H                    -0.9961   -9.5185    7.6897 
 H                    -1.6266   -11.6826   6.752 
 H                    -2.0035   -12.3245   8.3497 
 C                    -5.5198   -15.7962   13.6124 
 C                    -5.1034   -15.737    12.2853 
 C                    -5.1344   -14.521    11.6069 
 C                    -5.5814   -13.3555   12.2441 
 C                    -5.997    -13.4366   13.58 
 C                    -5.9666   -14.6498   14.2635 
 H                    -5.496    -16.7386   14.1407 
 H                    -4.761    -16.6299   11.7826 
 H                    -4.822    -14.4895   10.5735 
 H                    -6.3326   -12.551    14.0993 
 H                    -6.2853   -14.6994   15.2946 
 C                    -5.0001   -4.0942    6.4571 
 H                    -5.099    -3.5964    7.4227 
 H                    -4.6115   -3.3519    5.7585 
 H                    -6.0003   -4.3588    6.1116 
 C                    -2.681    -4.8428    6.9945 
 H                    -2.715    -4.4311    8.0042 
 H                    -1.9413   -5.6435    6.9974 
 H                    -2.2973   -4.0611    6.3375 
 C                    -3.9683   -5.9315    5.1205 
 H                    -3.2631   -6.7614    5.0727 
 H                    -4.9327   -6.3072    4.7757 
 H                    -3.631    -5.1888    4.3964 
 

 GradGradGradGradGradGradGradGradGradGradGradGradGradGradGradGradGradGrad
 Berny optimization.
 Initialization pass.
                           ----------------------------
                           !    Initial Parameters    !
                           ! (Angstroms and Degrees)  !
 --------------------------                            --------------------------
 ! Name  Definition              Value          Derivative Info.                !
 --------------------------------------------------------------------------------
 ! R1    R(1,4)                  1.5491         estimate D2E/DX2                !
 ! R2    R(1,44)                 1.55           estimate D2E/DX2                !
 ! R3    R(1,48)                 1.5465         estimate D2E/DX2                !
 ! R4    R(1,52)                 1.5465         estimate D2E/DX2                !
 ! R5    R(2,3)                  1.3952         estimate D2E/DX2                !
 ! R6    R(2,6)                  1.0794         estimate D2E/DX2                !
 ! R7    R(2,9)                  1.3934         estimate D2E/DX2                !
 ! R8    R(3,4)                  1.406          estimate D2E/DX2                !
 ! R9    R(3,7)                  1.0782         estimate D2E/DX2                !
 ! R10   R(4,5)                  1.4047         estimate D2E/DX2                !
 ! R11   R(5,8)                  1.0788         estimate D2E/DX2                !
 ! R12   R(5,10)                 1.3976         estimate D2E/DX2                !
 ! R13   R(9,10)                 1.3911         estimate D2E/DX2                !
 ! R14   R(9,12)                 1.4683         estimate D2E/DX2                !
 ! R15   R(10,22)                1.5252         estimate D2E/DX2                !
 ! R16   R(11,12)                1.3918         estimate D2E/DX2                !
 ! R17   R(11,16)                1.3984         estimate D2E/DX2                !
 ! R18   R(11,22)                1.5251         estimate D2E/DX2                !
 ! R19   R(12,13)                1.3937         estimate D2E/DX2                !
 ! R20   R(13,14)                1.3954         estimate D2E/DX2                !
 ! R21   R(13,17)                1.0792         estimate D2E/DX2                !
 ! R22   R(14,15)                1.4028         estimate D2E/DX2                !
 ! R23   R(14,18)                1.0797         estimate D2E/DX2                !
 ! R24   R(15,16)                1.4029         estimate D2E/DX2                !
 ! R25   R(15,36)                1.4927         estimate D2E/DX2                !
 ! R26   R(16,19)                1.0794         estimate D2E/DX2                !
 ! R27   R(20,21)                1.5305         estimate D2E/DX2                !
 ! R28   R(20,24)                1.5231         estimate D2E/DX2                !
 ! R29   R(20,29)                1.091          estimate D2E/DX2                !
 ! R30   R(20,30)                1.0918         estimate D2E/DX2                !
 ! R31   R(21,22)                1.5524         estimate D2E/DX2                !
 ! R32   R(21,25)                1.0912         estimate D2E/DX2                !
 ! R33   R(21,26)                1.0913         estimate D2E/DX2                !
 ! R34   R(22,23)                1.5529         estimate D2E/DX2                !
 ! R35   R(23,24)                1.531          estimate D2E/DX2                !
 ! R36   R(23,27)                1.0912         estimate D2E/DX2                !
 ! R37   R(23,28)                1.0913         estimate D2E/DX2                !
 ! R38   R(24,31)                1.0911         estimate D2E/DX2                !
 ! R39   R(24,32)                1.0918         estimate D2E/DX2                !
 ! R40   R(33,34)                1.3922         estimate D2E/DX2                !
 ! R41   R(33,38)                1.392          estimate D2E/DX2                !
 ! R42   R(33,39)                1.0806         estimate D2E/DX2                !
 ! R43   R(34,35)                1.3928         estimate D2E/DX2                !
 ! R44   R(34,40)                1.0804         estimate D2E/DX2                !
 ! R45   R(35,36)                1.4015         estimate D2E/DX2                !
 ! R46   R(35,41)                1.08           estimate D2E/DX2                !
 ! R47   R(36,37)                1.4014         estimate D2E/DX2                !
 ! R48   R(37,38)                1.3928         estimate D2E/DX2                !
 ! R49   R(37,42)                1.0801         estimate D2E/DX2                !
 ! R50   R(38,43)                1.0804         estimate D2E/DX2                !
 ! R51   R(44,45)                1.0909         estimate D2E/DX2                !
 ! R52   R(44,46)                1.0909         estimate D2E/DX2                !
 ! R53   R(44,47)                1.0908         estimate D2E/DX2                !
 ! R54   R(48,49)                1.0909         estimate D2E/DX2                !
 ! R55   R(48,50)                1.0901         estimate D2E/DX2                !
 ! R56   R(48,51)                1.0908         estimate D2E/DX2                !
 ! R57   R(52,53)                1.0901         estimate D2E/DX2                !
 ! R58   R(52,54)                1.0909         estimate D2E/DX2                !
 ! R59   R(52,55)                1.0907         estimate D2E/DX2                !
 ! A1    A(4,1,44)             113.3389         estimate D2E/DX2                !
 ! A2    A(4,1,48)             109.7119         estimate D2E/DX2                !
 ! A3    A(4,1,52)             109.7159         estimate D2E/DX2                !
 ! A4    A(44,1,48)            107.3984         estimate D2E/DX2                !
 ! A5    A(44,1,52)            107.3915         estimate D2E/DX2                !
 ! A6    A(48,1,52)            109.1761         estimate D2E/DX2                !
 ! A7    A(3,2,6)              119.5437         estimate D2E/DX2                !
 ! A8    A(3,2,9)              119.7882         estimate D2E/DX2                !
 ! A9    A(6,2,9)              120.668          estimate D2E/DX2                !
 ! A10   A(2,3,4)              121.049          estimate D2E/DX2                !
 ! A11   A(2,3,7)              117.5905         estimate D2E/DX2                !
 ! A12   A(4,3,7)              121.3605         estimate D2E/DX2                !
 ! A13   A(1,4,3)              122.5216         estimate D2E/DX2                !
 ! A14   A(1,4,5)              119.5549         estimate D2E/DX2                !
 ! A15   A(3,4,5)              117.9235         estimate D2E/DX2                !
 ! A16   A(4,5,8)              119.6937         estimate D2E/DX2                !
 ! A17   A(4,5,10)             121.3665         estimate D2E/DX2                !
 ! A18   A(8,5,10)             118.9397         estimate D2E/DX2                !
 ! A19   A(2,9,10)             120.4256         estimate D2E/DX2                !
 ! A20   A(2,9,12)             131.211          estimate D2E/DX2                !
 ! A21   A(10,9,12)            108.3633         estimate D2E/DX2                !
 ! A22   A(5,10,9)             119.4468         estimate D2E/DX2                !
 ! A23   A(5,10,22)            129.1431         estimate D2E/DX2                !
 ! A24   A(9,10,22)            111.4092         estimate D2E/DX2                !
 ! A25   A(12,11,16)           119.4501         estimate D2E/DX2                !
 ! A26   A(12,11,22)           111.3795         estimate D2E/DX2                !
 ! A27   A(16,11,22)           129.1699         estimate D2E/DX2                !
 ! A28   A(9,12,11)            108.3634         estimate D2E/DX2                !
 ! A29   A(9,12,13)            131.1885         estimate D2E/DX2                !
 ! A30   A(11,12,13)           120.4481         estimate D2E/DX2                !
 ! A31   A(12,13,14)           119.6553         estimate D2E/DX2                !
 ! A32   A(12,13,17)           120.7275         estimate D2E/DX2                !
 ! A33   A(14,13,17)           119.6168         estimate D2E/DX2                !
 ! A34   A(13,14,15)           121.0894         estimate D2E/DX2                !
 ! A35   A(13,14,18)           118.8178         estimate D2E/DX2                !
 ! A36   A(15,14,18)           120.0853         estimate D2E/DX2                !
 ! A37   A(14,15,16)           118.1595         estimate D2E/DX2                !
 ! A38   A(14,15,36)           120.9365         estimate D2E/DX2                !
 ! A39   A(16,15,36)           120.904          estimate D2E/DX2                !
 ! A40   A(11,16,15)           121.1968         estimate D2E/DX2                !
 ! A41   A(11,16,19)           119.2404         estimate D2E/DX2                !
 ! A42   A(15,16,19)           119.5576         estimate D2E/DX2                !
 ! A43   A(21,20,24)           103.1603         estimate D2E/DX2                !
 ! A44   A(21,20,29)           112.5538         estimate D2E/DX2                !
 ! A45   A(21,20,30)           110.3648         estimate D2E/DX2                !
 ! A46   A(24,20,29)           112.5942         estimate D2E/DX2                !
 ! A47   A(24,20,30)           110.4529         estimate D2E/DX2                !
 ! A48   A(29,20,30)           107.7123         estimate D2E/DX2                !
 ! A49   A(20,21,22)           107.142          estimate D2E/DX2                !
 ! A50   A(20,21,25)           111.8478         estimate D2E/DX2                !
 ! A51   A(20,21,26)           108.9455         estimate D2E/DX2                !
 ! A52   A(22,21,25)           112.4917         estimate D2E/DX2                !
 ! A53   A(22,21,26)           110.4706         estimate D2E/DX2                !
 ! A54   A(25,21,26)           105.933          estimate D2E/DX2                !
 ! A55   A(10,22,11)           100.4844         estimate D2E/DX2                !
 ! A56   A(10,22,21)           113.2419         estimate D2E/DX2                !
 ! A57   A(10,22,23)           113.2697         estimate D2E/DX2                !
 ! A58   A(11,22,21)           113.3072         estimate D2E/DX2                !
 ! A59   A(11,22,23)           113.3291         estimate D2E/DX2                !
 ! A60   A(21,22,23)           103.6368         estimate D2E/DX2                !
 ! A61   A(22,23,24)           107.2545         estimate D2E/DX2                !
 ! A62   A(22,23,27)           112.4778         estimate D2E/DX2                !
 ! A63   A(22,23,28)           110.4719         estimate D2E/DX2                !
 ! A64   A(24,23,27)           111.7585         estimate D2E/DX2                !
 ! A65   A(24,23,28)           108.9888         estimate D2E/DX2                !
 ! A66   A(27,23,28)           105.8783         estimate D2E/DX2                !
 ! A67   A(20,24,23)           103.2694         estimate D2E/DX2                !
 ! A68   A(20,24,31)           112.585          estimate D2E/DX2                !
 ! A69   A(20,24,32)           110.3839         estimate D2E/DX2                !
 ! A70   A(23,24,31)           112.5696         estimate D2E/DX2                !
 ! A71   A(23,24,32)           110.3342         estimate D2E/DX2                !
 ! A72   A(31,24,32)           107.6962         estimate D2E/DX2                !
 ! A73   A(34,33,38)           120.4546         estimate D2E/DX2                !
 ! A74   A(34,33,39)           119.7706         estimate D2E/DX2                !
 ! A75   A(38,33,39)           119.7748         estimate D2E/DX2                !
 ! A76   A(33,34,35)           119.656          estimate D2E/DX2                !
 ! A77   A(33,34,40)           120.2124         estimate D2E/DX2                !
 ! A78   A(35,34,40)           120.1313         estimate D2E/DX2                !
 ! A79   A(34,35,36)           120.7769         estimate D2E/DX2                !
 ! A80   A(34,35,41)           119.0171         estimate D2E/DX2                !
 ! A81   A(36,35,41)           120.1997         estimate D2E/DX2                !
 ! A82   A(15,36,35)           120.6507         estimate D2E/DX2                !
 ! A83   A(15,36,37)           120.6728         estimate D2E/DX2                !
 ! A84   A(35,36,37)           118.6764         estimate D2E/DX2                !
 ! A85   A(36,37,38)           120.779          estimate D2E/DX2                !
 ! A86   A(36,37,42)           120.1999         estimate D2E/DX2                !
 ! A87   A(38,37,42)           119.0148         estimate D2E/DX2                !
 ! A88   A(33,38,37)           119.6571         estimate D2E/DX2                !
 ! A89   A(33,38,43)           120.2167         estimate D2E/DX2                !
 ! A90   A(37,38,43)           120.1259         estimate D2E/DX2                !
 ! A91   A(1,44,45)            111.7289         estimate D2E/DX2                !
 ! A92   A(1,44,46)            111.6003         estimate D2E/DX2                !
 ! A93   A(1,44,47)            111.7281         estimate D2E/DX2                !
 ! A94   A(45,44,46)           106.7764         estimate D2E/DX2                !
 ! A95   A(45,44,47)           107.9352         estimate D2E/DX2                !
 ! A96   A(46,44,47)           106.7899         estimate D2E/DX2                !
 ! A97   A(1,48,49)            111.2274         estimate D2E/DX2                !
 ! A98   A(1,48,50)            112.2607         estimate D2E/DX2                !
 ! A99   A(1,48,51)            111.7047         estimate D2E/DX2                !
 ! A100  A(49,48,50)           107.2106         estimate D2E/DX2                !
 ! A101  A(49,48,51)           107.3356         estimate D2E/DX2                !
 ! A102  A(50,48,51)           106.8151         estimate D2E/DX2                !
 ! A103  A(1,52,53)            112.2574         estimate D2E/DX2                !
 ! A104  A(1,52,54)            111.2297         estimate D2E/DX2                !
 ! A105  A(1,52,55)            111.7066         estimate D2E/DX2                !
 ! A106  A(53,52,54)           107.208          estimate D2E/DX2                !
 ! A107  A(53,52,55)           106.8115         estimate D2E/DX2                !
 ! A108  A(54,52,55)           107.3408         estimate D2E/DX2                !
 ! D1    D(44,1,4,3)            -0.071          estimate D2E/DX2                !
 ! D2    D(44,1,4,5)           179.9607         estimate D2E/DX2                !
 ! D3    D(48,1,4,3)           119.9635         estimate D2E/DX2                !
 ! D4    D(48,1,4,5)           -60.0048         estimate D2E/DX2                !
 ! D5    D(52,1,4,3)          -120.0997         estimate D2E/DX2                !
 ! D6    D(52,1,4,5)            59.9321         estimate D2E/DX2                !
 ! D7    D(4,1,44,45)           60.545          estimate D2E/DX2                !
 ! D8    D(4,1,44,46)         -179.9845         estimate D2E/DX2                !
 ! D9    D(4,1,44,47)          -60.4974         estimate D2E/DX2                !
 ! D10   D(48,1,44,45)         -60.7981         estimate D2E/DX2                !
 ! D11   D(48,1,44,46)          58.6724         estimate D2E/DX2                !
 ! D12   D(48,1,44,47)         178.1595         estimate D2E/DX2                !
 ! D13   D(52,1,44,45)        -178.1116         estimate D2E/DX2                !
 ! D14   D(52,1,44,46)         -58.6411         estimate D2E/DX2                !
 ! D15   D(52,1,44,47)          60.846          estimate D2E/DX2                !
 ! D16   D(4,1,48,49)          -58.7058         estimate D2E/DX2                !
 ! D17   D(4,1,48,50)           61.425          estimate D2E/DX2                !
 ! D18   D(4,1,48,51)         -178.6171         estimate D2E/DX2                !
 ! D19   D(44,1,48,49)          64.8861         estimate D2E/DX2                !
 ! D20   D(44,1,48,50)        -174.9831         estimate D2E/DX2                !
 ! D21   D(44,1,48,51)         -55.0252         estimate D2E/DX2                !
 ! D22   D(52,1,48,49)        -178.9714         estimate D2E/DX2                !
 ! D23   D(52,1,48,50)         -58.8406         estimate D2E/DX2                !
 ! D24   D(52,1,48,51)          61.1173         estimate D2E/DX2                !
 ! D25   D(4,1,52,53)          -61.4447         estimate D2E/DX2                !
 ! D26   D(4,1,52,54)           58.6823         estimate D2E/DX2                !
 ! D27   D(4,1,52,55)          178.603          estimate D2E/DX2                !
 ! D28   D(44,1,52,53)         174.9653         estimate D2E/DX2                !
 ! D29   D(44,1,52,54)         -64.9077         estimate D2E/DX2                !
 ! D30   D(44,1,52,55)          55.013          estimate D2E/DX2                !
 ! D31   D(48,1,52,53)          58.8184         estimate D2E/DX2                !
 ! D32   D(48,1,52,54)         178.9454         estimate D2E/DX2                !
 ! D33   D(48,1,52,55)         -61.1339         estimate D2E/DX2                !
 ! D34   D(6,2,3,4)            179.8969         estimate D2E/DX2                !
 ! D35   D(6,2,3,7)             -0.0455         estimate D2E/DX2                !
 ! D36   D(9,2,3,4)             -0.0494         estimate D2E/DX2                !
 ! D37   D(9,2,3,7)           -179.9919         estimate D2E/DX2                !
 ! D38   D(3,2,9,10)            -0.103          estimate D2E/DX2                !
 ! D39   D(3,2,9,12)           179.7994         estimate D2E/DX2                !
 ! D40   D(6,2,9,10)           179.9512         estimate D2E/DX2                !
 ! D41   D(6,2,9,12)            -0.1463         estimate D2E/DX2                !
 ! D42   D(2,3,4,1)           -179.908          estimate D2E/DX2                !
 ! D43   D(2,3,4,5)              0.0607         estimate D2E/DX2                !
 ! D44   D(7,3,4,1)              0.0323         estimate D2E/DX2                !
 ! D45   D(7,3,4,5)           -179.999          estimate D2E/DX2                !
 ! D46   D(1,4,5,8)              0.09           estimate D2E/DX2                !
 ! D47   D(1,4,5,10)          -179.951          estimate D2E/DX2                !
 ! D48   D(3,4,5,8)           -179.8797         estimate D2E/DX2                !
 ! D49   D(3,4,5,10)             0.0793         estimate D2E/DX2                !
 ! D50   D(4,5,10,9)            -0.2292         estimate D2E/DX2                !
 ! D51   D(4,5,10,22)         -179.8415         estimate D2E/DX2                !
 ! D52   D(8,5,10,9)           179.7301         estimate D2E/DX2                !
 ! D53   D(8,5,10,22)            0.1179         estimate D2E/DX2                !
 ! D54   D(2,9,10,5)             0.2397         estimate D2E/DX2                !
 ! D55   D(2,9,10,22)          179.9167         estimate D2E/DX2                !
 ! D56   D(12,9,10,5)         -179.683          estimate D2E/DX2                !
 ! D57   D(12,9,10,22)          -0.006          estimate D2E/DX2                !
 ! D58   D(2,9,12,11)         -179.985          estimate D2E/DX2                !
 ! D59   D(2,9,12,13)            0.0835         estimate D2E/DX2                !
 ! D60   D(10,9,12,11)          -0.0736         estimate D2E/DX2                !
 ! D61   D(10,9,12,13)         179.995          estimate D2E/DX2                !
 ! D62   D(5,10,22,11)         179.7111         estimate D2E/DX2                !
 ! D63   D(5,10,22,21)          58.5534         estimate D2E/DX2                !
 ! D64   D(5,10,22,23)         -59.092          estimate D2E/DX2                !
 ! D65   D(9,10,22,11)           0.0738         estimate D2E/DX2                !
 ! D66   D(9,10,22,21)        -121.0838         estimate D2E/DX2                !
 ! D67   D(9,10,22,23)         121.2707         estimate D2E/DX2                !
 ! D68   D(16,11,12,9)        -179.6573         estimate D2E/DX2                !
 ! D69   D(16,11,12,13)          0.2829         estimate D2E/DX2                !
 ! D70   D(22,11,12,9)           0.125          estimate D2E/DX2                !
 ! D71   D(22,11,12,13)       -179.9348         estimate D2E/DX2                !
 ! D72   D(12,11,16,15)         -0.2792         estimate D2E/DX2                !
 ! D73   D(12,11,16,19)       -179.4445         estimate D2E/DX2                !
 ! D74   D(22,11,16,15)        179.9823         estimate D2E/DX2                !
 ! D75   D(22,11,16,19)          0.8169         estimate D2E/DX2                !
 ! D76   D(12,11,22,10)         -0.1207         estimate D2E/DX2                !
 ! D77   D(12,11,22,21)        120.9904         estimate D2E/DX2                !
 ! D78   D(12,11,22,23)       -121.2753         estimate D2E/DX2                !
 ! D79   D(16,11,22,10)        179.6348         estimate D2E/DX2                !
 ! D80   D(16,11,22,21)        -59.2541         estimate D2E/DX2                !
 ! D81   D(16,11,22,23)         58.4801         estimate D2E/DX2                !
 ! D82   D(9,12,13,14)         179.8465         estimate D2E/DX2                !
 ! D83   D(9,12,13,17)           0.0965         estimate D2E/DX2                !
 ! D84   D(11,12,13,14)         -0.078          estimate D2E/DX2                !
 ! D85   D(11,12,13,17)       -179.828          estimate D2E/DX2                !
 ! D86   D(12,13,14,15)         -0.1375         estimate D2E/DX2                !
 ! D87   D(12,13,14,18)       -179.1432         estimate D2E/DX2                !
 ! D88   D(17,13,14,15)        179.6153         estimate D2E/DX2                !
 ! D89   D(17,13,14,18)          0.6096         estimate D2E/DX2                !
 ! D90   D(13,14,15,16)          0.1411         estimate D2E/DX2                !
 ! D91   D(13,14,15,36)       -179.819          estimate D2E/DX2                !
 ! D92   D(18,14,15,16)        179.1343         estimate D2E/DX2                !
 ! D93   D(18,14,15,36)         -0.8258         estimate D2E/DX2                !
 ! D94   D(14,15,16,11)          0.0684         estimate D2E/DX2                !
 ! D95   D(14,15,16,19)        179.2311         estimate D2E/DX2                !
 ! D96   D(36,15,16,11)       -179.9715         estimate D2E/DX2                !
 ! D97   D(36,15,16,19)         -0.8088         estimate D2E/DX2                !
 ! D98   D(14,15,36,35)        141.978          estimate D2E/DX2                !
 ! D99   D(14,15,36,37)        -38.0149         estimate D2E/DX2                !
 ! D100  D(16,15,36,35)        -37.981          estimate D2E/DX2                !
 ! D101  D(16,15,36,37)        142.0261         estimate D2E/DX2                !
 ! D102  D(24,20,21,22)        -33.1004         estimate D2E/DX2                !
 ! D103  D(24,20,21,25)       -156.8096         estimate D2E/DX2                !
 ! D104  D(24,20,21,26)         86.426          estimate D2E/DX2                !
 ! D105  D(29,20,21,22)       -154.7247         estimate D2E/DX2                !
 ! D106  D(29,20,21,25)         81.566          estimate D2E/DX2                !
 ! D107  D(29,20,21,26)        -35.1983         estimate D2E/DX2                !
 ! D108  D(30,20,21,22)         84.9067         estimate D2E/DX2                !
 ! D109  D(30,20,21,25)        -38.8026         estimate D2E/DX2                !
 ! D110  D(30,20,21,26)       -155.5669         estimate D2E/DX2                !
 ! D111  D(21,20,24,23)         39.5441         estimate D2E/DX2                !
 ! D112  D(21,20,24,31)        161.2244         estimate D2E/DX2                !
 ! D113  D(21,20,24,32)        -78.3933         estimate D2E/DX2                !
 ! D114  D(29,20,24,23)        161.1412         estimate D2E/DX2                !
 ! D115  D(29,20,24,31)        -77.1785         estimate D2E/DX2                !
 ! D116  D(29,20,24,32)         43.2038         estimate D2E/DX2                !
 ! D117  D(30,20,24,23)        -78.4013         estimate D2E/DX2                !
 ! D118  D(30,20,24,31)         43.279          estimate D2E/DX2                !
 ! D119  D(30,20,24,32)        163.6614         estimate D2E/DX2                !
 ! D120  D(20,21,22,10)       -109.9226         estimate D2E/DX2                !
 ! D121  D(20,21,22,11)        136.458          estimate D2E/DX2                !
 ! D122  D(20,21,22,23)         13.2125         estimate D2E/DX2                !
 ! D123  D(25,21,22,10)         13.3904         estimate D2E/DX2                !
 ! D124  D(25,21,22,11)       -100.229          estimate D2E/DX2                !
 ! D125  D(25,21,22,23)        136.5255         estimate D2E/DX2                !
 ! D126  D(26,21,22,10)        131.5352         estimate D2E/DX2                !
 ! D127  D(26,21,22,11)         17.9158         estimate D2E/DX2                !
 ! D128  D(26,21,22,23)       -105.3297         estimate D2E/DX2                !
 ! D129  D(10,22,23,24)        134.7482         estimate D2E/DX2                !
 ! D130  D(10,22,23,27)       -101.9815         estimate D2E/DX2                !
 ! D131  D(10,22,23,28)         16.0863         estimate D2E/DX2                !
 ! D132  D(11,22,23,24)       -111.5997         estimate D2E/DX2                !
 ! D133  D(11,22,23,27)         11.6706         estimate D2E/DX2                !
 ! D134  D(11,22,23,28)        129.7384         estimate D2E/DX2                !
 ! D135  D(21,22,23,24)         11.6313         estimate D2E/DX2                !
 ! D136  D(21,22,23,27)        134.9017         estimate D2E/DX2                !
 ! D137  D(21,22,23,28)       -107.0305         estimate D2E/DX2                !
 ! D138  D(22,23,24,20)        -32.0945         estimate D2E/DX2                !
 ! D139  D(22,23,24,31)       -153.7852         estimate D2E/DX2                !
 ! D140  D(22,23,24,32)         85.8776         estimate D2E/DX2                !
 ! D141  D(27,23,24,20)       -155.8067         estimate D2E/DX2                !
 ! D142  D(27,23,24,31)         82.5027         estimate D2E/DX2                !
 ! D143  D(27,23,24,32)        -37.8346         estimate D2E/DX2                !
 ! D144  D(28,23,24,20)         87.5214         estimate D2E/DX2                !
 ! D145  D(28,23,24,31)        -34.1692         estimate D2E/DX2                !
 ! D146  D(28,23,24,32)       -154.5065         estimate D2E/DX2                !
 ! D147  D(38,33,34,35)          0.0341         estimate D2E/DX2                !
 ! D148  D(38,33,34,40)       -179.7609         estimate D2E/DX2                !
 ! D149  D(39,33,34,35)       -179.966          estimate D2E/DX2                !
 ! D150  D(39,33,34,40)          0.2389         estimate D2E/DX2                !
 ! D151  D(34,33,38,37)          0.0378         estimate D2E/DX2                !
 ! D152  D(34,33,38,43)       -179.7661         estimate D2E/DX2                !
 ! D153  D(39,33,38,37)       -179.9621         estimate D2E/DX2                !
 ! D154  D(39,33,38,43)          0.234          estimate D2E/DX2                !
 ! D155  D(33,34,35,36)         -0.0677         estimate D2E/DX2                !
 ! D156  D(33,34,35,41)       -179.1587         estimate D2E/DX2                !
 ! D157  D(40,34,35,36)        179.7274         estimate D2E/DX2                !
 ! D158  D(40,34,35,41)          0.6365         estimate D2E/DX2                !
 ! D159  D(34,35,36,15)       -179.964          estimate D2E/DX2                !
 ! D160  D(34,35,36,37)          0.029          estimate D2E/DX2                !
 ! D161  D(41,35,36,15)         -0.8838         estimate D2E/DX2                !
 ! D162  D(41,35,36,37)        179.1092         estimate D2E/DX2                !
 ! D163  D(15,36,37,38)       -179.9632         estimate D2E/DX2                !
 ! D164  D(15,36,37,42)         -0.8905         estimate D2E/DX2                !
 ! D165  D(35,36,37,38)          0.0438         estimate D2E/DX2                !
 ! D166  D(35,36,37,42)        179.1164         estimate D2E/DX2                !
 ! D167  D(36,37,38,33)         -0.0772         estimate D2E/DX2                !
 ! D168  D(36,37,38,43)        179.7269         estimate D2E/DX2                !
 ! D169  D(42,37,38,33)       -179.1606         estimate D2E/DX2                !
 ! D170  D(42,37,38,43)          0.6434         estimate D2E/DX2                !
 --------------------------------------------------------------------------------
 Trust Radius=3.00D-01 FncErr=1.00D-07 GrdErr=1.00D-06 EigMax=2.50D+02 EigMin=1.00D-04
 Number of steps in this run=    330 maximum allowed number of steps=    330.
 GradGradGradGradGradGradGradGradGradGradGradGradGradGradGradGradGradGrad

 Stoichiometry    C27H28
 Framework group  C1[X(C27H28)]
 Deg. of freedom   159
 Full point group                 C1      NOp   1
 Largest Abelian subgroup         C1      NOp   1
 Largest concise Abelian subgroup C1      NOp   1
                         Standard orientation:                         
 ---------------------------------------------------------------------
 Center     Atomic      Atomic             Coordinates (Angstroms)
 Number     Number       Type             X           Y           Z
 ---------------------------------------------------------------------
      1          6           0       -5.430347   -0.318686   -0.018282
      2          6           0       -2.095865   -2.287674   -0.140040
      3          6           0       -3.461256   -2.001075   -0.123083
      4          6           0       -3.923062   -0.675545   -0.041599
      5          6           0       -2.966844    0.351494    0.020903
      6          1           0       -1.768240   -3.314334   -0.201475
      7          1           0       -4.146577   -2.831930   -0.173704
      8          1           0       -3.289509    1.378804    0.086008
      9          6           0       -1.169642   -1.248682   -0.076544
     10          6           0       -1.597465    0.072671    0.001496
     11          6           0        0.747439    0.054581    0.005687
     12          6           0        0.298560   -1.260499   -0.072884
     13          6           0        1.208078   -2.314817   -0.133370
     14          6           0        2.577450   -2.047150   -0.116508
     15          6           0        3.057413   -0.731148   -0.042378
     16          6           0        2.121781    0.312398    0.017609
     17          1           0        0.864996   -3.336087   -0.197165
     18          1           0        3.269990   -2.873170   -0.178084
     19          1           0        2.466193    1.332958    0.087743
     20          6           0       -0.737910    3.350029    0.900461
     21          6           0       -0.414025    1.920137    1.339880
     22          6           0       -0.417529    1.037201    0.063051
     23          6           0       -0.408418    2.070185   -1.096425
     24          6           0       -0.105625    3.439493   -0.482315
     25          1           0       -1.111560    1.560460    2.098041
     26          1           0        0.571079    1.908296    1.809404
     27          1           0        0.305555    1.811487   -1.880053
     28          1           0       -1.384810    2.107055   -1.582435
     29          1           0       -0.345380    4.098807    1.590115
     30          1           0       -1.818483    3.492075    0.835780
     31          1           0       -0.508343    4.262444   -1.074771
     32          1           0        0.972856    3.587604   -0.398476
     33          6           0        7.270976    0.081830   -0.003104
     34          6           0        6.410490    0.925861   -0.699714
     35          6           0        5.043344    0.660070   -0.710206
     36          6           0        4.523038   -0.448493   -0.028596
     37          6           0        5.406169   -1.286175    0.665879
     38          6           0        6.774027   -1.024087    0.680844
     39          1           0        8.331989    0.286621    0.006728
     40          1           0        6.800848    1.780900   -1.232389
     41          1           0        4.386788    1.313793   -1.265257
     42          1           0        5.030211   -2.139230    1.211353
     43          1           0        7.444835   -1.674415    1.223327
     44          6           0       -6.356335   -1.559260   -0.094955
     45          1           0       -6.197382   -2.234504    0.746917
     46          1           0       -7.409639   -1.275917   -0.076820
     47          1           0       -6.198047   -2.125120   -1.013939
     48          6           0       -5.768759    0.430700    1.291492
     49          1           0       -5.524021   -0.173059    2.166549
     50          1           0       -5.221480    1.368930    1.383665
     51          1           0       -6.829682    0.676883    1.352848
     52          6           0       -5.770675    0.587396   -1.224403
     53          1           0       -5.223701    1.530026   -1.200009
     54          1           0       -5.526921    0.097140   -2.167980
     55          1           0       -6.831610    0.838947   -1.253310
 ---------------------------------------------------------------------
 Rotational constants (GHZ):           0.4818254           0.0870777           0.0771968
 Standard basis: def2TZVP (5D, 7F)
 There are  1140 symmetry adapted cartesian basis functions of A   symmetry.
 There are  1005 symmetry adapted basis functions of A   symmetry.
  1005 basis functions,  1601 primitive gaussians,  1140 cartesian basis functions
    95 alpha electrons       95 beta electrons
       nuclear repulsion energy      2297.9970236656 Hartrees.
 NAtoms=   55 NActive=   55 NUniq=   55 SFac= 1.00D+00 NAtFMM=   60 NAOKFM=F Big=F
 Integral buffers will be    131072 words long.
 Raffenetti 2 integral format.
 Two-electron integral symmetry is turned on.
 One-electron integrals computed using PRISM.
   1 Symmetry operations used in ECPInt.
 ECPInt:  NShTT=   83845 NPrTT=  251664 LenC2=   66768 LenP2D=  139356.
 LDataN:  DoStor=T MaxTD1= 6 Len=  172
 Number of processors reduced to  24 by ecpmxn.
 NBasis=  1005 RedAO= T EigKep=  4.04D-06  NBF=  1005
 NBsUse=  1005 1.00D-06 EigRej= -1.00D+00 NBFU=  1005
 ExpMin= 9.52D-02 ExpMax= 1.36D+04 ExpMxC= 4.63D+02 IAcc=3 IRadAn=         5 AccDes= 0.00D+00
 Harris functional with IExCor= 1009 and IRadAn=       5 diagonalized for initial guess.
 HarFok:  IExCor= 1009 AccDes= 0.00D+00 IRadAn=         5 IDoV= 1 UseB2=F ITyADJ=14
 ICtDFT=  3500011 ScaDFX=  1.000000  1.000000  1.000000  1.000000
 FoFCou: FMM=F IPFlag=           0 FMFlag=      100000 FMFlg1=           0
         NFxFlg=           0 DoJE=T BraDBF=F KetDBF=T FulRan=T
         wScrn=  0.000000 ICntrl=       500 IOpCl=  0 I1Cent=   200000004 NGrid=           0
         NMat0=    1 NMatS0=      1 NMatT0=    0 NMatD0=    1 NMtDS0=    0 NMtDT0=    0
 Petite list used in FoFCou.
 Requested convergence on RMS density matrix=1.00D-08 within 128 cycles.
 Requested convergence on MAX density matrix=1.00D-06.
 Requested convergence on             energy=1.00D-06.
 No special actions if energy rises.
 Integral accuracy reduced to 1.0D-05 until final iterations.
 Problem detected with inexpensive integrals.
 Switching to full accuracy and repeating last cycle.
 SCF Done:  E(RM062X) =  -1045.68327961     A.U. after   13 cycles
            NFock= 13  Conv=0.90D-08     -V/T= 2.0055

 **********************************************************************

            Population analysis using the SCF Density.

 **********************************************************************

 Orbital symmetries:
       Occupied  (A) (A) (A) (A) (A) (A) (A) (A) (A) (A) (A) (A)
                 (A) (A) (A) (A) (A) (A) (A) (A) (A) (A) (A) (A)
                 (A) (A) (A) (A) (A) (A) (A) (A) (A) (A) (A) (A)
                 (A) (A) (A) (A) (A) (A) (A) (A) (A) (A) (A) (A)
                 (A) (A) (A) (A) (A) (A) (A) (A) (A) (A) (A) (A)
                 (A) (A) (A) (A) (A) (A) (A) (A) (A) (A) (A) (A)
                 (A) (A) (A) (A) (A) (A) (A) (A) (A) (A) (A) (A)
                 (A) (A) (A) (A) (A) (A) (A) (A) (A) (A) (A)
       Virtual   (A) (A) (A) (A) (A) (A) (A) (A) (A) (A) (A) (A)
                 (A) (A) (A) (A) (A) (A) (A) (A) (A) (A) (A) (A)
                 (A) (A) (A) (A) (A) (A) (A) (A) (A) (A) (A) (A)
                 (A) (A) (A) (A) (A) (A) (A) (A) (A) (A) (A) (A)
                 (A) (A) (A) (A) (A) (A) (A) (A) (A) (A) (A) (A)
                 (A) (A) (A) (A) (A) (A) (A) (A) (A) (A) (A) (A)
                 (A) (A) (A) (A) (A) (A) (A) (A) (A) (A) (A) (A)
                 (A) (A) (A) (A) (A) (A) (A) (A) (A) (A) (A) (A)
                 (A) (A) (A) (A) (A) (A) (A) (A) (A) (A) (A) (A)
                 (A) (A) (A) (A) (A) (A) (A) (A) (A) (A) (A) (A)
                 (A) (A) (A) (A) (A) (A) (A) (A) (A) (A) (A) (A)
                 (A) (A) (A) (A) (A) (A) (A) (A) (A) (A) (A) (A)
                 (A) (A) (A) (A) (A) (A) (A) (A) (A) (A) (A) (A)
                 (A) (A) (A) (A) (A) (A) (A) (A) (A) (A) (A) (A)
                 (A) (A) (A) (A) (A) (A) (A) (A) (A) (A) (A) (A)
                 (A) (A) (A) (A) (A) (A) (A) (A) (A) (A) (A) (A)
                 (A) (A) (A) (A) (A) (A) (A) (A) (A) (A) (A) (A)
                 (A) (A) (A) (A) (A) (A) (A) (A) (A) (A) (A) (A)
                 (A) (A) (A) (A) (A) (A) (A) (A) (A) (A) (A) (A)
                 (A) (A) (A) (A) (A) (A) (A) (A) (A) (A) (A) (A)
                 (A) (A) (A) (A) (A) (A) (A) (A) (A) (A) (A) (A)
                 (A) (A) (A) (A) (A) (A) (A) (A) (A) (A) (A) (A)
                 (A) (A) (A) (A) (A) (A) (A) (A) (A) (A) (A) (A)
                 (A) (A) (A) (A) (A) (A) (A) (A) (A) (A) (A) (A)
                 (A) (A) (A) (A) (A) (A) (A) (A) (A) (A) (A) (A)
                 (A) (A) (A) (A) (A) (A) (A) (A) (A) (A) (A) (A)
                 (A) (A) (A) (A) (A) (A) (A) (A) (A) (A) (A) (A)
                 (A) (A) (A) (A) (A) (A) (A) (A) (A) (A) (A) (A)
                 (A) (A) (A) (A) (A) (A) (A) (A) (A) (A) (A) (A)
                 (A) (A) (A) (A) (A) (A) (A) (A) (A) (A) (A) (A)
                 (A) (A) (A) (A) (A) (A) (A) (A) (A) (A) (A) (A)
                 (A) (A) (A) (A) (A) (A) (A) (A) (A) (A) (A) (A)
                 (A) (A) (A) (A) (A) (A) (A) (A) (A) (A) (A) (A)
                 (A) (A) (A) (A) (A) (A) (A) (A) (A) (A) (A) (A)
                 (A) (A) (A) (A) (A) (A) (A) (A) (A) (A) (A) (A)
                 (A) (A) (A) (A) (A) (A) (A) (A) (A) (A) (A) (A)
                 (A) (A) (A) (A) (A) (A) (A) (A) (A) (A) (A) (A)
                 (A) (A) (A) (A) (A) (A) (A) (A) (A) (A) (A) (A)
                 (A) (A) (A) (A) (A) (A) (A) (A) (A) (A) (A) (A)
                 (A) (A) (A) (A) (A) (A) (A) (A) (A) (A) (A) (A)
                 (A) (A) (A) (A) (A) (A) (A) (A) (A) (A) (A) (A)
                 (A) (A) (A) (A) (A) (A) (A) (A) (A) (A) (A) (A)
                 (A) (A) (A) (A) (A) (A) (A) (A) (A) (A) (A) (A)
                 (A) (A) (A) (A) (A) (A) (A) (A) (A) (A) (A) (A)
                 (A) (A) (A) (A) (A) (A) (A) (A) (A) (A) (A) (A)
                 (A) (A) (A) (A) (A) (A) (A) (A) (A) (A) (A) (A)
                 (A) (A) (A) (A) (A) (A) (A) (A) (A) (A) (A) (A)
                 (A) (A) (A) (A) (A) (A) (A) (A) (A) (A) (A) (A)
                 (A) (A) (A) (A) (A) (A) (A) (A) (A) (A) (A) (A)
                 (A) (A) (A) (A) (A) (A) (A) (A) (A) (A) (A) (A)
                 (A) (A) (A) (A) (A) (A) (A) (A) (A) (A) (A) (A)
                 (A) (A) (A) (A) (A) (A) (A) (A) (A) (A) (A) (A)
                 (A) (A) (A) (A) (A) (A) (A) (A) (A) (A) (A) (A)
                 (A) (A) (A) (A) (A) (A) (A) (A) (A) (A) (A) (A)
                 (A) (A) (A) (A) (A) (A) (A) (A) (A) (A) (A) (A)
                 (A) (A) (A) (A) (A) (A) (A) (A) (A) (A) (A) (A)
                 (A) (A) (A) (A) (A) (A) (A) (A) (A) (A) (A) (A)
                 (A) (A) (A) (A) (A) (A) (A) (A) (A) (A) (A) (A)
                 (A) (A) (A) (A) (A) (A) (A) (A) (A) (A) (A) (A)
                 (A) (A) (A) (A) (A) (A) (A) (A) (A) (A) (A) (A)
                 (A) (A) (A) (A) (A) (A) (A) (A) (A) (A) (A) (A)
                 (A) (A) (A) (A) (A) (A) (A) (A) (A) (A) (A) (A)
                 (A) (A) (A) (A) (A) (A) (A) (A) (A) (A) (A) (A)
                 (A) (A) (A) (A) (A) (A) (A) (A) (A) (A) (A) (A)
                 (A) (A) (A) (A) (A) (A) (A) (A) (A) (A) (A) (A)
                 (A) (A) (A) (A) (A) (A) (A) (A) (A) (A) (A) (A)
                 (A) (A) (A) (A) (A) (A) (A) (A) (A) (A) (A) (A)
                 (A) (A) (A) (A) (A) (A) (A) (A) (A) (A) (A) (A)
                 (A) (A) (A) (A) (A) (A) (A) (A) (A) (A) (A) (A)
                 (A) (A) (A) (A) (A) (A) (A) (A) (A) (A) (A) (A)
                 (A) (A) (A) (A) (A) (A) (A) (A) (A) (A) (A) (A)
                 (A) (A) (A) (A) (A) (A) (A) (A) (A) (A) (A) (A)
                 (A) (A) (A) (A) (A) (A) (A) (A) (A) (A) (A) (A)
                 (A) (A) (A) (A) (A) (A) (A) (A) (A) (A) (A) (A)
                 (A) (A) (A) (A) (A) (A) (A) (A) (A) (A) (A) (A)
                 (A) (A) (A) (A) (A) (A) (A) (A) (A) (A)
 The electronic state is 1-A.
 Alpha  occ. eigenvalues --  -10.55890 -10.55739 -10.55437 -10.55295 -10.54983
 Alpha  occ. eigenvalues --  -10.54349 -10.54270 -10.54256 -10.54251 -10.54223
 Alpha  occ. eigenvalues --  -10.54190 -10.54173 -10.54155 -10.54150 -10.54036
 Alpha  occ. eigenvalues --  -10.54035 -10.54029 -10.53937 -10.53851 -10.53705
 Alpha  occ. eigenvalues --  -10.53265 -10.53231 -10.53029 -10.52991 -10.52409
 Alpha  occ. eigenvalues --  -10.52306 -10.52305  -0.99970  -0.96915  -0.95164
 Alpha  occ. eigenvalues --   -0.94118  -0.91833  -0.88602  -0.86315  -0.84490
 Alpha  occ. eigenvalues --   -0.83925  -0.83503  -0.80747  -0.79514  -0.79203
 Alpha  occ. eigenvalues --   -0.77717  -0.77533  -0.72625  -0.70654  -0.69069
 Alpha  occ. eigenvalues --   -0.68144  -0.66178  -0.65887  -0.65290  -0.63638
 Alpha  occ. eigenvalues --   -0.61501  -0.59272  -0.58593  -0.55888  -0.55477
 Alpha  occ. eigenvalues --   -0.54295  -0.54065  -0.52837  -0.51931  -0.51004
 Alpha  occ. eigenvalues --   -0.50807  -0.50399  -0.50050  -0.49309  -0.49070
 Alpha  occ. eigenvalues --   -0.48924  -0.48774  -0.47918  -0.47089  -0.45816
 Alpha  occ. eigenvalues --   -0.45293  -0.44546  -0.44267  -0.44052  -0.42828
 Alpha  occ. eigenvalues --   -0.42060  -0.41930  -0.41605  -0.40671  -0.40337
 Alpha  occ. eigenvalues --   -0.39823  -0.39650  -0.39382  -0.39088  -0.38656
 Alpha  occ. eigenvalues --   -0.38633  -0.38123  -0.36946  -0.36330  -0.34394
 Alpha  occ. eigenvalues --   -0.30919  -0.30313  -0.29962  -0.29590  -0.25456
 Alpha virt. eigenvalues --   -0.01769   0.00818   0.01965   0.02880   0.03322
 Alpha virt. eigenvalues --    0.05026   0.06341   0.07624   0.07940   0.08792
 Alpha virt. eigenvalues --    0.08948   0.09431   0.09785   0.10325   0.10844
 Alpha virt. eigenvalues --    0.10903   0.11256   0.11837   0.12331   0.12573
 Alpha virt. eigenvalues --    0.13285   0.13380   0.14047   0.14128   0.14662
 Alpha virt. eigenvalues --    0.14885   0.15379   0.15624   0.15953   0.16068
 Alpha virt. eigenvalues --    0.16660   0.17320   0.17484   0.18256   0.18677
 Alpha virt. eigenvalues --    0.18775   0.18881   0.19386   0.19757   0.20190
 Alpha virt. eigenvalues --    0.20280   0.20508   0.20970   0.21486   0.22047
 Alpha virt. eigenvalues --    0.22114   0.22534   0.22761   0.23139   0.23255
 Alpha virt. eigenvalues --    0.23535   0.24157   0.24253   0.24656   0.24862
 Alpha virt. eigenvalues --    0.25522   0.25605   0.25780   0.26283   0.26496
 Alpha virt. eigenvalues --    0.26856   0.26963   0.27385   0.27710   0.28684
 Alpha virt. eigenvalues --    0.29261   0.29472   0.29704   0.30198   0.30631
 Alpha virt. eigenvalues --    0.31023   0.31319   0.31964   0.32401   0.32533
 Alpha virt. eigenvalues --    0.32966   0.33131   0.33774   0.34091   0.34392
 Alpha virt. eigenvalues --    0.34885   0.35419   0.36069   0.36294   0.36515
 Alpha virt. eigenvalues --    0.37195   0.37621   0.37856   0.38279   0.38499
 Alpha virt. eigenvalues --    0.38671   0.39434   0.39649   0.39865   0.40408
 Alpha virt. eigenvalues --    0.40499   0.41066   0.41348   0.41831   0.41976
 Alpha virt. eigenvalues --    0.42117   0.42501   0.42884   0.42954   0.43205
 Alpha virt. eigenvalues --    0.43589   0.44194   0.44331   0.44464   0.44786
 Alpha virt. eigenvalues --    0.44887   0.45060   0.45306   0.45712   0.45759
 Alpha virt. eigenvalues --    0.46060   0.46456   0.46600   0.46830   0.47172
 Alpha virt. eigenvalues --    0.47505   0.47643   0.48044   0.48261   0.48409
 Alpha virt. eigenvalues --    0.48732   0.49061   0.49592   0.49886   0.50105
 Alpha virt. eigenvalues --    0.50468   0.50789   0.51086   0.51127   0.51437
 Alpha virt. eigenvalues --    0.51925   0.52095   0.52667   0.52933   0.53284
 Alpha virt. eigenvalues --    0.53477   0.54083   0.54214   0.54385   0.54821
 Alpha virt. eigenvalues --    0.55046   0.55117   0.55612   0.56028   0.56659
 Alpha virt. eigenvalues --    0.56891   0.57051   0.57894   0.58740   0.59148
 Alpha virt. eigenvalues --    0.59988   0.60359   0.60801   0.61219   0.61793
 Alpha virt. eigenvalues --    0.63005   0.63355   0.63461   0.63640   0.64640
 Alpha virt. eigenvalues --    0.65626   0.66333   0.67008   0.67203   0.67834
 Alpha virt. eigenvalues --    0.68249   0.69130   0.69820   0.70199   0.70703
 Alpha virt. eigenvalues --    0.70977   0.71548   0.72152   0.72665   0.73351
 Alpha virt. eigenvalues --    0.73719   0.73774   0.74325   0.74861   0.75042
 Alpha virt. eigenvalues --    0.75335   0.75958   0.76629   0.76947   0.77236
 Alpha virt. eigenvalues --    0.77779   0.78190   0.78448   0.79151   0.79421
 Alpha virt. eigenvalues --    0.79611   0.80231   0.80910   0.81611   0.81867
 Alpha virt. eigenvalues --    0.82340   0.82838   0.83521   0.84258   0.85378
 Alpha virt. eigenvalues --    0.85690   0.85856   0.86323   0.86710   0.87677
 Alpha virt. eigenvalues --    0.87941   0.88794   0.88927   0.89194   0.89757
 Alpha virt. eigenvalues --    0.89788   0.90640   0.91351   0.91621   0.91986
 Alpha virt. eigenvalues --    0.92175   0.92737   0.93115   0.94324   0.94438
 Alpha virt. eigenvalues --    0.94712   0.95301   0.96257   0.96488   0.97114
 Alpha virt. eigenvalues --    0.97162   0.97491   0.98182   0.98559   0.99282
 Alpha virt. eigenvalues --    0.99745   1.00861   1.01683   1.02717   1.03008
 Alpha virt. eigenvalues --    1.03524   1.03958   1.04981   1.05286   1.05442
 Alpha virt. eigenvalues --    1.05866   1.06353   1.07519   1.07909   1.08235
 Alpha virt. eigenvalues --    1.08920   1.09805   1.10343   1.11013   1.11659
 Alpha virt. eigenvalues --    1.12088   1.12450   1.13189   1.13636   1.14116
 Alpha virt. eigenvalues --    1.14826   1.15498   1.16005   1.16557   1.16953
 Alpha virt. eigenvalues --    1.17264   1.17376   1.18412   1.18966   1.19723
 Alpha virt. eigenvalues --    1.20033   1.20872   1.21873   1.22733   1.22954
 Alpha virt. eigenvalues --    1.23170   1.23932   1.24308   1.24638   1.25409
 Alpha virt. eigenvalues --    1.25941   1.26265   1.26468   1.26679   1.27821
 Alpha virt. eigenvalues --    1.28314   1.29621   1.30230   1.30454   1.31028
 Alpha virt. eigenvalues --    1.31181   1.31590   1.31673   1.32213   1.32541
 Alpha virt. eigenvalues --    1.33438   1.34331   1.34599   1.35660   1.36097
 Alpha virt. eigenvalues --    1.37073   1.38036   1.38469   1.39278   1.39684
 Alpha virt. eigenvalues --    1.40477   1.40877   1.41859   1.42615   1.43040
 Alpha virt. eigenvalues --    1.43661   1.44568   1.45647   1.45819   1.46320
 Alpha virt. eigenvalues --    1.46851   1.48141   1.48527   1.49409   1.49785
 Alpha virt. eigenvalues --    1.50416   1.51047   1.51838   1.52231   1.53319
 Alpha virt. eigenvalues --    1.53640   1.54340   1.55710   1.56258   1.56434
 Alpha virt. eigenvalues --    1.56828   1.58040   1.58238   1.58439   1.58485
 Alpha virt. eigenvalues --    1.59438   1.59680   1.60183   1.60793   1.61122
 Alpha virt. eigenvalues --    1.61422   1.61652   1.62324   1.62844   1.63148
 Alpha virt. eigenvalues --    1.63600   1.64065   1.64122   1.64975   1.65618
 Alpha virt. eigenvalues --    1.65974   1.66253   1.66699   1.67517   1.67747
 Alpha virt. eigenvalues --    1.68126   1.68340   1.69002   1.69413   1.69949
 Alpha virt. eigenvalues --    1.71257   1.71409   1.71767   1.72536   1.72904
 Alpha virt. eigenvalues --    1.73491   1.73693   1.74363   1.75340   1.75980
 Alpha virt. eigenvalues --    1.76318   1.76767   1.76944   1.77250   1.78149
 Alpha virt. eigenvalues --    1.78813   1.79335   1.79856   1.80399   1.80816
 Alpha virt. eigenvalues --    1.81540   1.82755   1.83405   1.84941   1.85697
 Alpha virt. eigenvalues --    1.86735   1.87366   1.87500   1.88169   1.88500
 Alpha virt. eigenvalues --    1.89459   1.89842   1.90497   1.91751   1.92488
 Alpha virt. eigenvalues --    1.93176   1.93502   1.94234   1.94823   1.95491
 Alpha virt. eigenvalues --    1.96188   1.96581   1.97494   1.97899   1.98821
 Alpha virt. eigenvalues --    1.99008   2.00897   2.01431   2.02155   2.03068
 Alpha virt. eigenvalues --    2.03961   2.04229   2.05162   2.05853   2.06342
 Alpha virt. eigenvalues --    2.06736   2.07189   2.08044   2.08308   2.09341
 Alpha virt. eigenvalues --    2.10071   2.11185   2.11316   2.11875   2.13306
 Alpha virt. eigenvalues --    2.13459   2.14122   2.14951   2.15668   2.16345
 Alpha virt. eigenvalues --    2.17753   2.18415   2.19134   2.19634   2.19816
 Alpha virt. eigenvalues --    2.20900   2.21516   2.21763   2.23778   2.24508
 Alpha virt. eigenvalues --    2.24571   2.25137   2.25447   2.26008   2.26695
 Alpha virt. eigenvalues --    2.26732   2.27356   2.27566   2.28618   2.28922
 Alpha virt. eigenvalues --    2.29864   2.30600   2.31196   2.32650   2.33169
 Alpha virt. eigenvalues --    2.33697   2.33888   2.34873   2.35412   2.35884
 Alpha virt. eigenvalues --    2.37291   2.38663   2.38876   2.39726   2.40193
 Alpha virt. eigenvalues --    2.40800   2.41474   2.41746   2.42359   2.43424
 Alpha virt. eigenvalues --    2.43663   2.44038   2.45269   2.45476   2.45866
 Alpha virt. eigenvalues --    2.47161   2.47398   2.47980   2.48884   2.49670
 Alpha virt. eigenvalues --    2.50015   2.50186   2.51049   2.51758   2.52265
 Alpha virt. eigenvalues --    2.52823   2.53994   2.54314   2.54624   2.55036
 Alpha virt. eigenvalues --    2.55411   2.55680   2.56438   2.56904   2.57061
 Alpha virt. eigenvalues --    2.57728   2.58182   2.59840   2.60267   2.60875
 Alpha virt. eigenvalues --    2.61497   2.61619   2.62781   2.63074   2.63587
 Alpha virt. eigenvalues --    2.64035   2.64271   2.64940   2.65410   2.65982
 Alpha virt. eigenvalues --    2.66367   2.66666   2.67142   2.67250   2.67795
 Alpha virt. eigenvalues --    2.68126   2.68495   2.68543   2.69160   2.69598
 Alpha virt. eigenvalues --    2.69721   2.70375   2.70425   2.71258   2.71384
 Alpha virt. eigenvalues --    2.71749   2.72835   2.73549   2.74015   2.74364
 Alpha virt. eigenvalues --    2.74398   2.74976   2.75547   2.76020   2.76398
 Alpha virt. eigenvalues --    2.76615   2.77281   2.77520   2.77875   2.79176
 Alpha virt. eigenvalues --    2.79286   2.79728   2.80673   2.80765   2.81424
 Alpha virt. eigenvalues --    2.82635   2.83255   2.83472   2.83807   2.84171
 Alpha virt. eigenvalues --    2.84730   2.84919   2.85136   2.86039   2.86430
 Alpha virt. eigenvalues --    2.87018   2.87574   2.87912   2.88174   2.88736
 Alpha virt. eigenvalues --    2.88937   2.89552   2.90166   2.90447   2.91010
 Alpha virt. eigenvalues --    2.92405   2.93356   2.93607   2.94616   2.95220
 Alpha virt. eigenvalues --    2.95726   2.96173   2.97340   2.97642   2.98197
 Alpha virt. eigenvalues --    2.98483   2.99176   2.99909   3.00459   3.01254
 Alpha virt. eigenvalues --    3.01880   3.02325   3.03535   3.04182   3.04468
 Alpha virt. eigenvalues --    3.05413   3.05517   3.06304   3.06764   3.07223
 Alpha virt. eigenvalues --    3.07504   3.08179   3.08669   3.09213   3.10055
 Alpha virt. eigenvalues --    3.10513   3.10635   3.11432   3.12083   3.12628
 Alpha virt. eigenvalues --    3.12837   3.13249   3.14079   3.14357   3.15096
 Alpha virt. eigenvalues --    3.15587   3.15799   3.16609   3.17112   3.17639
 Alpha virt. eigenvalues --    3.18299   3.18871   3.19269   3.19654   3.20095
 Alpha virt. eigenvalues --    3.20550   3.20600   3.20872   3.21182   3.21540
 Alpha virt. eigenvalues --    3.21752   3.22891   3.23387   3.24015   3.24494
 Alpha virt. eigenvalues --    3.24987   3.25574   3.26313   3.26843   3.27065
 Alpha virt. eigenvalues --    3.27705   3.28229   3.28445   3.28786   3.29334
 Alpha virt. eigenvalues --    3.29870   3.30392   3.30729   3.30982   3.31373
 Alpha virt. eigenvalues --    3.31597   3.32409   3.32968   3.33161   3.33877
 Alpha virt. eigenvalues --    3.34295   3.34522   3.34670   3.35334   3.35564
 Alpha virt. eigenvalues --    3.35766   3.36215   3.36984   3.37119   3.37494
 Alpha virt. eigenvalues --    3.37775   3.38205   3.38770   3.38873   3.39257
 Alpha virt. eigenvalues --    3.39519   3.40826   3.41131   3.41295   3.42026
 Alpha virt. eigenvalues --    3.42093   3.42754   3.43948   3.44273   3.44835
 Alpha virt. eigenvalues --    3.45281   3.45762   3.46270   3.46867   3.47164
 Alpha virt. eigenvalues --    3.47640   3.48069   3.48748   3.49357   3.49613
 Alpha virt. eigenvalues --    3.50119   3.51151   3.51485   3.52064   3.52273
 Alpha virt. eigenvalues --    3.52971   3.53337   3.53978   3.54544   3.54820
 Alpha virt. eigenvalues --    3.55255   3.55470   3.56006   3.57392   3.57619
 Alpha virt. eigenvalues --    3.58393   3.58705   3.58884   3.59583   3.59691
 Alpha virt. eigenvalues --    3.60035   3.61065   3.61748   3.62061   3.62531
 Alpha virt. eigenvalues --    3.63575   3.64255   3.64888   3.65326   3.65602
 Alpha virt. eigenvalues --    3.66424   3.66817   3.68169   3.68804   3.69648
 Alpha virt. eigenvalues --    3.70505   3.71140   3.71358   3.72035   3.73437
 Alpha virt. eigenvalues --    3.75695   3.76175   3.76990   3.77778   3.78201
 Alpha virt. eigenvalues --    3.79061   3.79738   3.80380   3.81472   3.82936
 Alpha virt. eigenvalues --    3.84300   3.84953   3.85547   3.86240   3.88636
 Alpha virt. eigenvalues --    3.89082   3.90473   3.92638   3.93398   3.94224
 Alpha virt. eigenvalues --    3.95122   3.96120   3.96548   3.98503   3.98664
 Alpha virt. eigenvalues --    3.99229   4.00394   4.01049   4.03225   4.03559
 Alpha virt. eigenvalues --    4.04125   4.04253   4.04615   4.04979   4.05299
 Alpha virt. eigenvalues --    4.06052   4.06636   4.07503   4.07692   4.08633
 Alpha virt. eigenvalues --    4.09287   4.09702   4.11409   4.11827   4.12297
 Alpha virt. eigenvalues --    4.12645   4.13486   4.14232   4.14807   4.15055
 Alpha virt. eigenvalues --    4.15515   4.15869   4.16546   4.17183   4.18078
 Alpha virt. eigenvalues --    4.19082   4.19585   4.19838   4.20155   4.20467
 Alpha virt. eigenvalues --    4.20704   4.21520   4.21768   4.22894   4.23206
 Alpha virt. eigenvalues --    4.23511   4.23885   4.25425   4.26530   4.27162
 Alpha virt. eigenvalues --    4.27586   4.28682   4.29727   4.30877   4.31131
 Alpha virt. eigenvalues --    4.32335   4.32990   4.33917   4.34612   4.35112
 Alpha virt. eigenvalues --    4.37389   4.38006   4.38331   4.39133   4.39890
 Alpha virt. eigenvalues --    4.40258   4.40455   4.41669   4.42164   4.43278
 Alpha virt. eigenvalues --    4.44983   4.45999   4.46691   4.48035   4.48584
 Alpha virt. eigenvalues --    4.50203   4.50285   4.51430   4.52225   4.53251
 Alpha virt. eigenvalues --    4.54814   4.55698   4.56456   4.57037   4.59204
 Alpha virt. eigenvalues --    4.60955   4.61872   4.62824   4.65082   4.65320
 Alpha virt. eigenvalues --    4.65630   4.66945   4.67337   4.68574   4.68822
 Alpha virt. eigenvalues --    4.72407   4.75511   4.77085   4.77787   4.78824
 Alpha virt. eigenvalues --    4.79749   4.80132   4.82421   4.83341   4.84933
 Alpha virt. eigenvalues --    4.85681   4.86724   4.87408   4.88846   4.89585
 Alpha virt. eigenvalues --    4.90879   4.91471   4.92662   4.93320   4.96312
 Alpha virt. eigenvalues --    4.97005   4.99139   5.06166   5.06489   5.08150
 Alpha virt. eigenvalues --    5.09834   5.11780   5.13185   5.17291   5.18631
 Alpha virt. eigenvalues --    5.21682   5.22765   5.27745   5.31321   5.34308
 Alpha virt. eigenvalues --    5.34999   5.36835   5.39957   5.45383   5.50210
 Alpha virt. eigenvalues --    5.53190   5.56911   5.58653   5.65532   5.69547
 Alpha virt. eigenvalues --    5.71721   5.75794   6.05698  22.20680  22.39956
 Alpha virt. eigenvalues --   22.52743  22.54875  22.55246  22.59607  22.63036
 Alpha virt. eigenvalues --   22.66783  22.70673  22.71447  22.74170  22.77572
 Alpha virt. eigenvalues --   22.78183  22.82791  22.85101  22.90712  22.91603
 Alpha virt. eigenvalues --   22.93447  22.95943  23.02547  23.16370  23.17047
 Alpha virt. eigenvalues --   23.20482  23.27131  23.40815  23.78682  23.95952
          Condensed to atoms (all electrons):
 Mulliken charges:
               1
     1  C   -0.072966
     2  C   -0.259870
     3  C   -0.132089
     4  C    0.152254
     5  C   -0.303295
     6  H    0.137983
     7  H    0.160766
     8  H    0.201769
     9  C    0.089117
    10  C    0.001442
    11  C    0.007225
    12  C    0.096377
    13  C   -0.248269
    14  C   -0.189876
    15  C    0.118649
    16  C   -0.287678
    17  H    0.140780
    18  H    0.158982
    19  H    0.201478
    20  C   -0.254738
    21  C   -0.320631
    22  C   -0.028440
    23  C   -0.324344
    24  C   -0.250629
    25  H    0.162812
    26  H    0.167295
    27  H    0.162121
    28  H    0.166115
    29  H    0.141651
    30  H    0.133853
    31  H    0.140486
    32  H    0.135179
    33  C   -0.146115
    34  C   -0.153713
    35  C   -0.212059
    36  C    0.100690
    37  C   -0.215710
    38  C   -0.153613
    39  H    0.141065
    40  H    0.143750
    41  H    0.163379
    42  H    0.164555
    43  H    0.144008
    44  C   -0.520597
    45  H    0.166515
    46  H    0.157301
    47  H    0.166627
    48  C   -0.426221
    49  H    0.158521
    50  H    0.143294
    51  H    0.149710
    52  C   -0.426070
    53  H    0.142581
    54  H    0.158819
    55  H    0.149774
 Sum of Mulliken charges =  -0.00000
 Mulliken charges with hydrogens summed into heavy atoms:
               1
     1  C   -0.072966
     2  C   -0.121886
     3  C    0.028677
     4  C    0.152254
     5  C   -0.101526
     9  C    0.089117
    10  C    0.001442
    11  C    0.007225
    12  C    0.096377
    13  C   -0.107488
    14  C   -0.030894
    15  C    0.118649
    16  C   -0.086201
    20  C    0.020767
    21  C    0.009476
    22  C   -0.028440
    23  C    0.003892
    24  C    0.025035
    33  C   -0.005050
    34  C   -0.009963
    35  C   -0.048680
    36  C    0.100690
    37  C   -0.051155
    38  C   -0.009605
    44  C   -0.030154
    48  C    0.025303
    52  C    0.025103
 Electronic spatial extent (au):  <R**2>=          13732.5589
 Charge=             -0.0000 electrons
 Dipole moment (field-independent basis, Debye):
    X=             -0.5536    Y=              0.7732    Z=              0.0731  Tot=              0.9537
 Quadrupole moment (field-independent basis, Debye-Ang):
   XX=           -148.3588   YY=           -151.5206   ZZ=           -167.7523
   XY=              0.2273   XZ=              0.8866   YZ=             -2.8203
 Traceless Quadrupole moment (field-independent basis, Debye-Ang):
   XX=              7.5184   YY=              4.3567   ZZ=            -11.8751
   XY=              0.2273   XZ=              0.8866   YZ=             -2.8203
 Octapole moment (field-independent basis, Debye-Ang**2):
  XXX=             26.3207  YYY=            -15.0266  ZZZ=              1.8687  XYY=              5.4427
  XXY=              0.8867  XXZ=              9.0888  XZZ=             -7.3296  YZZ=              9.5239
  YYZ=             -0.7327  XYZ=            -21.6616
 Hexadecapole moment (field-independent basis, Debye-Ang**3):
 XXXX=         -14838.7297 YYYY=          -2663.1066 ZZZZ=           -680.2103 XXXY=             37.1118
 XXXZ=             88.6208 YYYX=             -0.4251 YYYZ=             -5.2474 ZZZX=              1.6870
 ZZZY=             -6.8678 XXYY=          -3041.1758 XXZZ=          -2879.3179 YYZZ=           -580.1500
 XXYZ=           -141.1214 YYXZ=             12.9708 ZZXY=              5.6410
 N-N= 2.297997023666D+03 E-N=-7.019025537155D+03  KE= 1.039986578143D+03
 ******************************Gaussian NBO Version 3.1******************************
             N A T U R A L   A T O M I C   O R B I T A L   A N D
          N A T U R A L   B O N D   O R B I T A L   A N A L Y S I S
 ******************************Gaussian NBO Version 3.1******************************
       /RESON  / : Allow strongly delocalized NBO set

 Analyzing the SCF density

 Job title: Structure697                                                    

 Storage needed:   3040210 in NPA,   4046171 in NBO (1048560325 available)
 GSVD:  LWork=      433295 too small for GESVD, short by      715350 words or      715350 for optimal perf.


 NATURAL POPULATIONS:  Natural atomic orbital occupancies 
                                                          
   NAO  Atom  No  lang   Type(AO)    Occupancy      Energy
 ----------------------------------------------------------
     1    C    1  S      Cor( 1S)     1.99944     -10.41382
     2    C    1  S      Val( 2S)     0.95385      -0.27469
     3    C    1  S      Ryd( 4S)     0.00026       2.46550
     4    C    1  S      Ryd( 3S)     0.00007       1.77997
     5    C    1  S      Ryd( 5S)     0.00000      20.63122
     6    C    1  px     Val( 2p)     1.02949      -0.09256
     7    C    1  px     Ryd( 3p)     0.00191       1.23071
     8    C    1  px     Ryd( 4p)     0.00025       1.43756
     9    C    1  py     Val( 2p)     1.03508      -0.09850
    10    C    1  py     Ryd( 3p)     0.00397       1.32885
    11    C    1  py     Ryd( 4p)     0.00019       1.47524
    12    C    1  pz     Val( 2p)     1.03011      -0.09951
    13    C    1  pz     Ryd( 3p)     0.00177       1.21245
    14    C    1  pz     Ryd( 4p)     0.00023       1.36031
    15    C    1  dxy    Ryd( 4d)     0.00061       2.96849
    16    C    1  dxy    Ryd( 3d)     0.00041       2.41634
    17    C    1  dxz    Ryd( 4d)     0.00091       2.50931
    18    C    1  dxz    Ryd( 3d)     0.00011       2.17154
    19    C    1  dyz    Ryd( 4d)     0.00062       2.87068
    20    C    1  dyz    Ryd( 3d)     0.00052       2.29827
    21    C    1  dx2y2  Ryd( 4d)     0.00082       2.83448
    22    C    1  dx2y2  Ryd( 3d)     0.00042       2.55328
    23    C    1  dz2    Ryd( 4d)     0.00072       2.87048
    24    C    1  dz2    Ryd( 3d)     0.00046       2.44669
    25    C    1  f(0)   Ryd( 4f)     0.00001       3.70974
    26    C    1  f(C1)  Ryd( 4f)     0.00002       3.82159
    27    C    1  f(S1)  Ryd( 4f)     0.00004       3.91949
    28    C    1  f(C2)  Ryd( 4f)     0.00002       3.67772
    29    C    1  f(S2)  Ryd( 4f)     0.00002       3.69356
    30    C    1  f(C3)  Ryd( 4f)     0.00005       3.92819
    31    C    1  f(S3)  Ryd( 4f)     0.00002       3.86290
 
    32    C    2  S      Cor( 1S)     1.99917     -10.37646
    33    C    2  S      Val( 2S)     0.95902      -0.21107
    34    C    2  S      Ryd( 3S)     0.00082       1.45788
    35    C    2  S      Ryd( 4S)     0.00003       3.15343
    36    C    2  S      Ryd( 5S)     0.00000      19.73309
    37    C    2  px     Val( 2p)     1.05885      -0.05552
    38    C    2  px     Ryd( 3p)     0.00295       1.25569
    39    C    2  px     Ryd( 4p)     0.00018       2.10535
    40    C    2  py     Val( 2p)     1.15046      -0.05856
    41    C    2  py     Ryd( 3p)     0.00387       1.20772
    42    C    2  py     Ryd( 4p)     0.00021       2.52955
    43    C    2  pz     Val( 2p)     0.99588      -0.10930
    44    C    2  pz     Ryd( 3p)     0.00162       0.71330
    45    C    2  pz     Ryd( 4p)     0.00046       1.40759
    46    C    2  dxy    Ryd( 3d)     0.00216       1.96299
    47    C    2  dxy    Ryd( 4d)     0.00059       3.55548
    48    C    2  dxz    Ryd( 3d)     0.00015       1.54031
    49    C    2  dxz    Ryd( 4d)     0.00018       2.94728
    50    C    2  dyz    Ryd( 3d)     0.00033       1.46625
    51    C    2  dyz    Ryd( 4d)     0.00008       2.83489
    52    C    2  dx2y2  Ryd( 3d)     0.00077       2.20165
    53    C    2  dx2y2  Ryd( 4d)     0.00049       3.67724
    54    C    2  dz2    Ryd( 3d)     0.00096       1.69228
    55    C    2  dz2    Ryd( 4d)     0.00004       3.34349
    56    C    2  f(0)   Ryd( 4f)     0.00026       3.34743
    57    C    2  f(C1)  Ryd( 4f)     0.00012       3.75286
    58    C    2  f(S1)  Ryd( 4f)     0.00026       3.59113
    59    C    2  f(C2)  Ryd( 4f)     0.00001       3.43797
    60    C    2  f(S2)  Ryd( 4f)     0.00003       3.47221
    61    C    2  f(C3)  Ryd( 4f)     0.00007       4.24582
    62    C    2  f(S3)  Ryd( 4f)     0.00005       4.27007
 
    63    C    3  S      Cor( 1S)     1.99916     -10.37623
    64    C    3  S      Val( 2S)     0.96712      -0.21909
    65    C    3  S      Ryd( 3S)     0.00089       1.51155
    66    C    3  S      Ryd( 4S)     0.00002       1.61924
    67    C    3  S      Ryd( 5S)     0.00001      21.39853
    68    C    3  px     Val( 2p)     1.09542      -0.05942
    69    C    3  px     Ryd( 3p)     0.00279       1.26114
    70    C    3  px     Ryd( 4p)     0.00025       2.42034
    71    C    3  py     Val( 2p)     1.12542      -0.06136
    72    C    3  py     Ryd( 3p)     0.00376       1.10040
    73    C    3  py     Ryd( 4p)     0.00029       2.41456
    74    C    3  pz     Val( 2p)     1.01421      -0.11065
    75    C    3  pz     Ryd( 3p)     0.00180       0.63270
    76    C    3  pz     Ryd( 4p)     0.00056       1.56110
    77    C    3  dxy    Ryd( 3d)     0.00096       2.10719
    78    C    3  dxy    Ryd( 4d)     0.00076       3.66870
    79    C    3  dxz    Ryd( 3d)     0.00030       1.45239
    80    C    3  dxz    Ryd( 4d)     0.00013       2.92497
    81    C    3  dyz    Ryd( 3d)     0.00029       1.46426
    82    C    3  dyz    Ryd( 4d)     0.00006       2.92362
    83    C    3  dx2y2  Ryd( 3d)     0.00185       1.87040
    84    C    3  dx2y2  Ryd( 4d)     0.00040       3.49146
    85    C    3  dz2    Ryd( 3d)     0.00072       1.74011
    86    C    3  dz2    Ryd( 4d)     0.00006       3.38694
    87    C    3  f(0)   Ryd( 4f)     0.00026       3.31828
    88    C    3  f(C1)  Ryd( 4f)     0.00019       3.62826
    89    C    3  f(S1)  Ryd( 4f)     0.00019       3.63226
    90    C    3  f(C2)  Ryd( 4f)     0.00000       3.49257
    91    C    3  f(S2)  Ryd( 4f)     0.00002       3.39982
    92    C    3  f(C3)  Ryd( 4f)     0.00007       4.36707
    93    C    3  f(S3)  Ryd( 4f)     0.00006       4.09608
 
    94    C    4  S      Cor( 1S)     1.99910     -10.38960
    95    C    4  S      Val( 2S)     0.91939      -0.20509
    96    C    4  S      Ryd( 3S)     0.00188       1.26928
    97    C    4  S      Ryd( 4S)     0.00074       1.87363
    98    C    4  S      Ryd( 5S)     0.00000      21.28437
    99    C    4  px     Val( 2p)     1.01968      -0.04325
   100    C    4  px     Ryd( 3p)     0.00572       1.34815
   101    C    4  px     Ryd( 4p)     0.00016       3.03683
   102    C    4  py     Val( 2p)     1.04852      -0.05214
   103    C    4  py     Ryd( 3p)     0.00394       1.13999
   104    C    4  py     Ryd( 4p)     0.00011       2.71243
   105    C    4  pz     Val( 2p)     0.98777      -0.10250
   106    C    4  pz     Ryd( 3p)     0.00311       0.74005
   107    C    4  pz     Ryd( 4p)     0.00037       1.72713
   108    C    4  dxy    Ryd( 3d)     0.00149       2.31847
   109    C    4  dxy    Ryd( 4d)     0.00062       3.59137
   110    C    4  dxz    Ryd( 3d)     0.00042       1.56381
   111    C    4  dxz    Ryd( 4d)     0.00015       3.18826
   112    C    4  dyz    Ryd( 3d)     0.00015       1.48808
   113    C    4  dyz    Ryd( 4d)     0.00033       3.18016
   114    C    4  dx2y2  Ryd( 3d)     0.00095       2.39995
   115    C    4  dx2y2  Ryd( 4d)     0.00070       3.56319
   116    C    4  dz2    Ryd( 3d)     0.00079       2.11341
   117    C    4  dz2    Ryd( 4d)     0.00006       3.56616
   118    C    4  f(0)   Ryd( 4f)     0.00024       3.43356
   119    C    4  f(C1)  Ryd( 4f)     0.00024       3.58900
   120    C    4  f(S1)  Ryd( 4f)     0.00012       3.63463
   121    C    4  f(C2)  Ryd( 4f)     0.00001       3.51317
   122    C    4  f(S2)  Ryd( 4f)     0.00005       3.62084
   123    C    4  f(C3)  Ryd( 4f)     0.00009       4.32328
   124    C    4  f(S3)  Ryd( 4f)     0.00007       4.33823
 
   125    C    5  S      Cor( 1S)     1.99904     -10.37486
   126    C    5  S      Val( 2S)     0.95448      -0.20669
   127    C    5  S      Ryd( 3S)     0.00109       1.66689
   128    C    5  S      Ryd( 4S)     0.00001       2.11329
   129    C    5  S      Ryd( 5S)     0.00000      21.09658
   130    C    5  px     Val( 2p)     1.07089      -0.05742
   131    C    5  px     Ryd( 3p)     0.00160       1.13477
   132    C    5  px     Ryd( 4p)     0.00064       2.07214
   133    C    5  py     Val( 2p)     1.16560      -0.06532
   134    C    5  py     Ryd( 3p)     0.00403       1.13515
   135    C    5  py     Ryd( 4p)     0.00031       1.75302
   136    C    5  pz     Val( 2p)     1.01586      -0.11279
   137    C    5  pz     Ryd( 3p)     0.00141       0.69989
   138    C    5  pz     Ryd( 4p)     0.00031       1.47463
   139    C    5  dxy    Ryd( 3d)     0.00115       2.08566
   140    C    5  dxy    Ryd( 4d)     0.00031       3.72250
   141    C    5  dxz    Ryd( 3d)     0.00028       1.55175
   142    C    5  dxz    Ryd( 4d)     0.00023       3.05500
   143    C    5  dyz    Ryd( 3d)     0.00034       1.45094
   144    C    5  dyz    Ryd( 4d)     0.00005       2.88118
   145    C    5  dx2y2  Ryd( 3d)     0.00120       2.18464
   146    C    5  dx2y2  Ryd( 4d)     0.00053       3.81234
   147    C    5  dz2    Ryd( 3d)     0.00108       1.80540
   148    C    5  dz2    Ryd( 4d)     0.00003       3.48555
   149    C    5  f(0)   Ryd( 4f)     0.00019       3.39092
   150    C    5  f(C1)  Ryd( 4f)     0.00009       3.89178
   151    C    5  f(S1)  Ryd( 4f)     0.00011       3.65804
   152    C    5  f(C2)  Ryd( 4f)     0.00002       3.47562
   153    C    5  f(S2)  Ryd( 4f)     0.00001       3.49676
   154    C    5  f(C3)  Ryd( 4f)     0.00008       4.32845
   155    C    5  f(S3)  Ryd( 4f)     0.00006       4.23742
 
   156    H    6  S      Val( 1S)     0.78796       0.05334
   157    H    6  S      Ryd( 3S)     0.00045       1.54807
   158    H    6  S      Ryd( 2S)     0.00016       1.50264
   159    H    6  px     Ryd( 2p)     0.00011       2.92791
   160    H    6  py     Ryd( 2p)     0.00042       3.06952
   161    H    6  pz     Ryd( 2p)     0.00009       2.23266
 
   162    H    7  S      Val( 1S)     0.78429       0.05976
   163    H    7  S      Ryd( 3S)     0.00038       1.60007
   164    H    7  S      Ryd( 2S)     0.00018       1.42204
   165    H    7  px     Ryd( 2p)     0.00022       2.97370
   166    H    7  py     Ryd( 2p)     0.00027       3.00930
   167    H    7  pz     Ryd( 2p)     0.00008       2.23406
 
   168    H    8  S      Val( 1S)     0.79268       0.05284
   169    H    8  S      Ryd( 2S)     0.00253       0.63807
   170    H    8  S      Ryd( 3S)     0.00019       2.27806
   171    H    8  px     Ryd( 2p)     0.00008       2.96227
   172    H    8  py     Ryd( 2p)     0.00032       3.12474
   173    H    8  pz     Ryd( 2p)     0.00016       2.26526
 
   174    C    9  S      Cor( 1S)     1.99903     -10.36845
   175    C    9  S      Val( 2S)     0.89561      -0.17222
   176    C    9  S      Ryd( 4S)     0.00105       1.66998
   177    C    9  S      Ryd( 3S)     0.00067       1.53251
   178    C    9  S      Ryd( 5S)     0.00000      21.17469
   179    C    9  px     Val( 2p)     1.05158      -0.04539
   180    C    9  px     Ryd( 3p)     0.00473       1.38648
   181    C    9  px     Ryd( 4p)     0.00031       1.87916
   182    C    9  py     Val( 2p)     1.08923      -0.06357
   183    C    9  py     Ryd( 3p)     0.00384       1.34084
   184    C    9  py     Ryd( 4p)     0.00033       1.82495
   185    C    9  pz     Val( 2p)     1.01132      -0.10262
   186    C    9  pz     Ryd( 3p)     0.00166       0.81940
   187    C    9  pz     Ryd( 4p)     0.00031       1.37022
   188    C    9  dxy    Ryd( 3d)     0.00092       2.63483
   189    C    9  dxy    Ryd( 4d)     0.00052       3.81326
[...]
 0024,0.00000091,-0.00000045,-0.00000015,0.00000199,-0.00000017,0.00000
 160,-0.00000239,-0.00000045,-0.00000032,-0.00000085,0.00000260,0.00000
 075,0.00000096,-0.00000127,0.00360855,-0.00672774,-0.00375044,-0.00065
 274,0.00158864,0.00096718,-0.00079768,0.00145150,0.00056611,-0.0006575
 7,0.00111485,0.00039535,-0.00559432,-0.00951685,-0.01654287,-0.0012026
 9,-0.00000577,0.00053476,0.00138701,0.00045805,0.00064397,0.00144129,0
 .00076112,0.00097678,0.00661747,-0.03964943,0.47774304,-0.00282180,0.0
 0063603,-0.00001877,0.00009040,0.00023652,-0.00016531,-0.00024319,-0.0
 0013174,0.00028700,0.00006786,0.00087495,-0.00051604,-0.00038912,0.000
 08953,-0.00053919,-0.00001007,-0.00001396,-0.00000992,0.00008027,-0.00
 001150,-0.00007043,0.00071221,0.00010508,-0.00041952,0.00025456,-0.000
 10298,0.00001999,-0.00013612,-0.00043790,0.00006292,-0.00003880,-0.000
 02555,0.00001774,0.00004566,-0.00001281,0.00000141,-0.00000383,0.00001
 689,-0.00000687,0.00001154,-0.00000503,-0.00001103,-0.00000852,-0.0000
 0372,0.00000922,0.00001411,0.00000880,-0.00001822,0.00000329,-0.000001
 21,0.00000076,0.00000264,0.00000265,-0.00000209,-0.00000006,-0.0000027
 8,0.00000558,-0.00000435,0.00001814,-0.00001445,0.00001740,0.00000863,
 0.00001016,-0.00003223,-0.00001322,-0.00000162,-0.00000138,-0.00005807
 ,0.00008190,0.00002247,0.00000947,-0.00001335,0.00000364,-0.00000624,-
 0.00000099,-0.00001332,0.00000747,-0.00000596,-0.00000674,0.00000852,-
 0.00000857,0.00002396,-0.00003210,-0.00000275,-0.00001231,0.00000377,-
 0.00000676,0.00001711,-0.00000324,0.00001153,0.00000576,-0.00000843,0.
 00000344,-0.00002341,0.00000759,-0.00001379,0.00000022,0.00000298,-0.0
 0000245,0.00000065,-0.00000222,-0.00000191,-0.00000012,0.00000538,0.00
 000192,0.00000312,-0.00001152,0.00000346,-0.00000152,0.00000608,-0.000
 00261,0.00000047,0.00000063,0.00000073,-0.00000008,0.00000136,-0.00000
 091,-0.00000052,0.00000043,0.00000073,0.,-0.00000306,-0.00000123,0.000
 00005,-0.00000106,0.00000203,0.00000032,0.00000080,-0.00000205,0.00056
 566,-0.00037715,0.00102159,0.00034345,0.00044382,-0.00000877,0.0000049
 4,0.00012211,-0.00022409,0.00043157,-0.00023598,-0.00005436,0.00075581
 ,-0.00082221,-0.00007989,0.00001604,-0.00004956,0.00014415,0.00033835,
 0.00016812,-0.00011119,-0.00003052,-0.00008065,0.00012101,-0.15280616,
 0.13170734,0.00187987,0.16236398,0.00730189,-0.01038740,0.00087271,-0.
 00003240,-0.00016491,0.00018700,0.00032128,0.00009819,-0.00020617,-0.0
 0087765,-0.00024262,0.00039709,0.00042241,-0.00049217,0.00105938,0.000
 00293,0.00000176,-0.00001791,-0.00008449,-0.00001545,0.00004438,-0.000
 33765,0.00013473,0.00118589,-0.00025010,0.00005354,-0.00001006,-0.0000
 4157,0.00038232,0.00002339,0.00000028,0.00002658,-0.00002592,-0.000042
 26,-0.00000941,0.00000351,0.00000118,-0.00001081,0.00000875,-0.0000127
 2,0.00001293,0.00000380,0.00001123,0.00000261,-0.00001041,-0.00000279,
 -0.00001411,0.00001017,-0.00000190,-0.00000031,0.00000073,0.00000041,-
 0.00000044,0.00000005,-0.00000102,0.00000329,-0.00000014,-0.00000608,0
 .00001706,-0.00001481,0.00001249,-0.00001154,-0.00000133,0.00005037,0.
 00004522,0.00000989,0.00001072,-0.00003375,0.00007401,0.00001441,0.000
 00801,-0.00000527,0.00000005,-0.00000246,-0.00001059,-0.00000261,-0.00
 000392,0.00000437,-0.00000704,0.00000540,-0.00001721,0.00000019,0.0000
 5082,-0.00007194,-0.00000501,-0.00000067,-0.00000404,0.00000467,0.0000
 0975,0.00000012,-0.00000053,0.00000161,0.00000267,-0.00001466,-0.00000
 375,-0.00000163,-0.00000056,0.00000256,-0.00000079,-0.00000083,-0.0000
 0050,-0.00000099,-0.00000022,0.00000209,-0.00000227,-0.00000050,-0.000
 00589,0.00000408,-0.00000054,0.00000261,-0.00000205,-0.00000002,-0.000
 00046,0.00000072,0.00000028,0.00000037,-0.00000017,0.00000023,0.000001
 20,0.00000014,0.00000096,-0.00000069,0.00000025,-0.00000007,-0.0000000
 3,0.00000084,0.00000047,0.00000022,-0.00000016,-0.00058977,-0.00045135
 ,-0.00342405,0.00086550,-0.00052705,-0.00015905,-0.00010927,0.00051626
 ,-0.00006435,0.00011661,0.00008683,0.00015111,0.00065923,0.00022620,0.
 00081116,-0.00018297,0.00028714,0.00007547,-0.00063160,0.00008979,-0.0
 0047072,0.00006412,-0.00010504,-0.00005885,0.13213597,-0.21057540,-0.0
 0261831,-0.14568064,0.22851660,0.01882842,-0.02322222,-0.00030072,-0.0
 0008618,-0.00038689,0.00020462,0.00043260,0.00024529,-0.00017622,-0.00
 030519,-0.00063627,0.00185152,0.00045122,-0.00016369,-0.00065520,-0.00
 001726,-0.00001630,-0.00001420,-0.00012556,-0.00003639,0.00006817,-0.0
 0046689,0.00086905,-0.00180102,-0.00031198,0.00017984,0.00016463,0.000
 00847,0.00051104,-0.00019752,0.00002052,-0.00003049,0.00000424,-0.0000
 5933,0.00004705,-0.00001189,0.00001098,-0.00002637,0.00000641,0.000003
 52,-0.00000966,0.00001062,-0.00000777,-0.00000565,0.00000762,-0.000014
 40,0.00000543,0.00000427,-0.00000027,0.00000274,-0.00000393,-0.0000033
 5,-0.00000433,0.00000458,0.00000452,-0.00000074,-0.00000094,0.00002631
 ,0.00002901,-0.00002420,-0.00001723,-0.00001424,-0.00000694,0.00001696
 ,0.00002143,-0.00005667,-0.00000686,0.00000012,-0.00001268,-0.00001016
 ,-0.00000624,0.00001430,-0.00000816,-0.00000154,-0.00002017,0.00000899
 ,-0.00001356,0.00000885,-0.00000180,-0.00002166,0.00001523,0.00000542,
 0.00003626,0.00004689,0.00000649,-0.00001865,0.00001263,-0.00003108,-0
 .00000008,0.00002341,0.00001293,-0.00001055,-0.00000968,0.00000325,-0.
 00001016,-0.00000011,0.00000010,-0.00000775,0.00000420,0.00000027,0.00
 000313,0.00000220,-0.00000170,-0.00001104,0.00000537,-0.00000346,0.000
 02411,-0.00001229,0.00000227,-0.00001142,0.00000588,-0.00000100,-0.000
 00044,-0.00000292,0.00000018,-0.00000167,0.00000113,0.00000089,-0.0000
 0274,-0.00000016,-0.00000001,0.00000464,0.00000132,0.00000089,0.000001
 09,-0.00000381,-0.00000049,-0.00000124,0.00000239,-0.00007503,-0.00172
 288,-0.00594831,0.00113441,-0.00176051,0.00011960,-0.00022224,-0.00018
 499,0.00008551,0.00005615,0.00019286,-0.00006940,0.00130893,0.00037235
 ,0.00173174,0.00009910,0.00033912,0.00007289,-0.00063418,0.00021611,-0
 .00006975,-0.00016646,0.00001775,-0.00004901,0.00034020,-0.00059560,-0
 .04596658,-0.00105788,0.00266957,0.05160969,0.00131494,0.00123779,0.00
 105150,0.00002562,-0.00013238,-0.00001939,0.00015474,0.00027270,-0.000
 37920,0.00077668,-0.00015849,0.00035977,-0.00027603,0.00043469,-0.0000
 1902,0.00001216,0.00001347,-0.00001407,-0.00000526,0.00000729,0.000015
 77,0.00007835,-0.00013941,-0.00002190,-0.00003498,0.00009426,-0.000026
 95,0.00010920,-0.00004318,-0.00010725,-0.00000935,0.00002707,0.0000018
 6,0.00002092,-0.00001882,0.00001474,0.00000047,0.00000771,-0.00000111,
 -0.00000243,0.00000652,-0.00000171,0.00000656,0.00000447,-0.00000616,0
 .00000394,-0.00000247,0.00000585,-0.00000157,-0.00000314,-0.00000150,0
 .00000011,0.00000079,-0.00000288,-0.00000259,-0.00000120,-0.00000181,-
 0.00000195,-0.00003163,0.00002566,-0.00000692,0.00000476,-0.00000379,-
 0.00000073,-0.00002074,-0.00000340,0.00000881,0.00002072,-0.00003676,-
 0.00001260,-0.00000042,0.00000645,0.00000130,0.00000361,0.00001378,0.0
 0000406,0.00000355,-0.00000354,0.00000803,0.00001551,-0.00000796,-0.00
 003662,-0.00001596,-0.00000126,0.00000586,0.00000596,-0.00000091,0.000
 00388,0.00000369,-0.00001346,-0.00000666,0.00000133,0.00000214,0.00001
 428,0.00000386,0.00000287,0.00000045,0.00000252,-0.00000097,0.00000068
 ,-0.00000042,0.00000035,0.00000212,0.00000348,-0.00000296,0.00000092,-
 0.00000756,0.00000372,0.00000095,0.00000313,-0.00000155,0.00000055,0.0
 0000009,0.00000125,-0.00000058,0.00000025,-0.00000039,-0.00000107,0.00
 000102,-0.00000041,-0.00000175,-0.00000128,-0.00000075,-0.00000155,-0.
 00000029,0.00000084,-0.00000036,0.00000013,-0.00000050,0.00078131,0.00
 013201,0.00045184,0.00023983,-0.00001609,-0.00004214,-0.00006097,0.000
 03972,-0.00013227,0.00028218,-0.00026187,0.00004997,0.00105611,0.00025
 632,-0.00006994,0.00023749,-0.00008805,-0.00008880,0.00020174,-0.00003
 254,0.00024826,0.00009814,0.00021347,0.00013821,-0.26654532,-0.0746432
 9,-0.07349887,-0.01706660,-0.00694621,-0.00523551,0.28709546,-0.010956
 80,-0.00502475,-0.00286760,0.00002137,0.00003863,-0.00010557,-0.000028
 00,0.00015916,-0.00000199,0.00037958,0.00013550,0.00075988,0.00033788,
 -0.00000617,-0.00026893,0.00000382,0.00001258,-0.00000906,0.00003971,0
 .00000116,-0.00003860,0.00003059,0.00014807,0.00003682,0.00009596,-0.0
 0010125,-0.00002146,-0.00031873,-0.00013178,0.00007242,-0.00000889,0.0
 0000038,-0.00000036,0.00000459,-0.00001009,0.00003310,0.00000134,0.000
 00460,-0.00000187,-0.00000105,-0.00000250,-0.00000133,-0.00000055,0.00
 000109,-0.00000005,0.00000323,-0.00000216,-0.00000025,-0.00000005,-0.0
 0000004,0.00000089,0.00000075,0.00000060,-0.00000085,0.,-0.00000029,0.
 00000163,0.00000462,0.00002163,-0.00001485,0.00000739,-0.00001005,-0.0
 0000254,-0.00000329,0.00001871,-0.00000072,-0.00000745,-0.00001536,0.0
 0002137,0.00000993,0.00000156,-0.00000802,0.00000019,-0.00000071,-0.00
 000155,-0.00000540,0.00000292,0.00000136,-0.00000334,-0.00000774,0.000
 00701,0.00002853,0.00001338,-0.00000718,-0.00000452,-0.00000542,0.0000
 0137,-0.00000427,-0.00000427,0.00000058,0.00000179,0.00000177,0.000002
 10,-0.00001006,0.00000005,-0.00000304,0.00000018,0.00000184,-0.0000011
 1,0.00000013,-0.00000110,-0.00000088,-0.00000053,0.00000266,0.00000044
 ,0.00000074,-0.00000702,0.00000270,0.00000017,0.00000308,-0.00000164,0
 .00000021,-0.00000007,0.00000059,-0.00000011,0.00000065,-0.00000045,-0
 .00000023,0.00000042,0.00000038,0.00000048,-0.00000122,-0.00000050,-0.
 00000051,-0.00000048,0.00000090,0.00000014,0.00000031,-0.00000090,-0.0
 0124688,0.00037891,0.00027001,0.00023738,0.00015010,0.00022363,-0.0000
 9684,-0.00006067,-0.00002177,0.00058891,-0.00023367,-0.00029808,0.0007
 9672,-0.00085398,-0.00258887,-0.00083656,0.00024052,-0.00050670,-0.000
 25208,0.00011365,-0.00004935,0.00039273,0.00026403,0.00003778,-0.07420
 583,-0.07260102,-0.02444858,0.02312384,0.00883129,0.00806464,0.0815743
 3,0.07514009,-0.02738383,-0.00861272,-0.01020632,0.00008006,0.00005347
 ,-0.00013050,0.00031594,0.00009176,0.00015181,-0.00120606,-0.00092236,
 0.00144777,0.00002681,0.00043715,0.00017063,-0.00000896,0.00000141,-0.
 00000957,0.00001422,-0.00005282,-0.00004589,0.00003196,-0.00011072,-0.
 00001622,0.00005352,-0.00004325,-0.00004292,-0.00009983,0.00004190,-0.
 00001290,0.00000499,-0.00005004,0.00003148,0.00000816,0.00004570,-0.00
 001554,0.00001342,-0.00000140,-0.00000724,0.00002251,-0.00002697,0.000
 00351,-0.00002504,-0.00000475,0.00002027,0.00000038,0.00002320,-0.0000
 1497,0.00000129,0.00000193,-0.00000589,-0.00000332,-0.00000369,0.00000
 278,0.00000372,-0.00000518,-0.00000064,0.00000775,-0.00000454,0.000013
 82,-0.00001915,-0.00002610,-0.00000413,0.00000568,0.00001981,-0.000021
 28,0.00000845,0.00000617,0.00000256,-0.00001035,-0.00000350,-0.0000034
 7,-0.00000758,0.00000293,0.00000099,0.00001022,-0.00000198,0.00000289,
 0.00000223,0.00000168,0.00000046,-0.00001335,0.00000495,0.00000827,0.0
 0000899,-0.00000371,-0.00000073,-0.00000352,-0.00000019,-0.00000960,0.
 00000680,-0.00000153,-0.00000270,0.00000601,0.,0.00000410,0.00000050,-
 0.00000783,0.00000414,0.00000116,0.00000258,0.00000257,-0.00000113,-0.
 00001023,0.00000605,-0.00000089,0.00002358,-0.00001270,0.00000352,-0.0
 0001144,0.00000608,-0.00000159,-0.00000034,-0.00000315,-0.00000003,-0.
 00000158,0.00000088,0.00000049,-0.00000255,-0.00000030,-0.00000113,0.0
 0000356,0.00000063,0.00000027,0.00000102,-0.00000363,-0.00000072,-0.00
 000128,0.00000232,-0.00104047,0.00117797,0.00095079,0.00016061,0.00032
 970,0.00006511,0.00016944,-0.00004969,-0.00004236,0.00068349,-0.000328
 17,0.00023328,0.00159431,-0.00236979,-0.00588573,-0.00187993,-0.000907
 83,-0.00045941,0.00024737,0.00015479,0.00005581,0.00000855,-0.00021739
 ,0.00017522,-0.07180528,-0.02396996,-0.06995736,0.00056115,0.00048880,
 -0.00072825,0.08014633,0.02958050,0.07754290,-0.00212123,-0.00131600,0
 .00160273,0.00001459,0.00009413,-0.00018075,0.00009227,-0.00008857,0.0
 0009914,0.00084906,0.00079502,0.00042519,-0.00009056,0.00039718,-0.000
 28860,-0.00000307,0.00000065,0.00002300,-0.00002253,-0.00000049,0.0000
 3512,0.00029570,-0.00006484,0.00014670,0.00017380,-0.00006317,-0.00003
 583,-0.00019758,-0.00026543,-0.00000226,-0.00000598,-0.00005122,0.0000
 2996,0.00001963,0.00002944,0.00001120,0.00001785,0.00000619,-0.0000154
 6,0.00002419,-0.00003128,0.00000014,-0.00002598,-0.00000286,0.00002059
 ,0.00000044,0.00002431,-0.00001410,0.00000087,0.00000165,-0.00000217,-
 0.00000237,-0.00000279,0.00000247,0.00000333,-0.00000357,0.00000035,-0
 .00000505,-0.00000656,0.00000657,-0.00000390,0.00000705,0.00000187,-0.
 00003372,-0.00000202,-0.00000658,0.00000831,-0.00000485,0.00001676,-0.
 00000069,0.00000069,-0.00000158,-0.00000141,0.00000024,-0.00000382,-0.
 00000021,-0.00000191,-0.00000146,-0.00000046,0.00000788,-0.00000555,-0
 .00001285,-0.00000961,-0.00000109,0.00000286,0.00000322,-0.00000363,0.
 00000720,0.00000421,0.00000068,0.00000379,-0.00000369,-0.00000238,-0.0
 0000118,0.00000113,0.00000013,0.00000003,-0.00000653,0.00000315,0.0000
 0092,0.00000196,0.00000214,-0.00000175,-0.00000792,0.00000560,-0.00000
 082,0.00001831,-0.00001050,0.00000247,-0.00000935,0.00000448,-0.000001
 66,-0.00000031,-0.00000295,0.00000030,-0.00000128,0.00000078,0.0000007
 2,-0.00000214,-0.00000023,-0.00000062,0.00000254,0.00000051,0.00000103
 ,0.00000095,-0.00000266,-0.00000032,-0.00000094,0.00000199,-0.00009452
 ,-0.00056532,0.00027181,-0.00001481,0.00012552,-0.00027289,0.00010476,
 0.00051960,0.00027888,-0.00013240,-0.00010934,0.00007569,0.00028863,0.
 00042822,-0.00070441,-0.00006032,0.00011373,0.00010058,-0.00005052,0.0
 0013959,-0.00001666,0.00022342,-0.00022654,-0.00027667,-0.07839164,-0.
 06277206,0.05706068,0.00745326,0.01386579,-0.01391256,-0.00847196,-0.0
 1969528,0.01930184,0.08016066,0.00426856,0.00706931,-0.00932193,0.0000
 9292,-0.00013177,0.00029216,0.00060134,0.00052881,-0.00038892,0.000061
 52,-0.00100813,-0.00151036,0.00011414,0.00019779,0.00030789,-0.0000028
 4,0.00000026,-0.00003478,-0.00009074,-0.00000835,-0.00010195,-0.000416
 62,0.00002205,-0.00021272,-0.00016766,0.00015491,-0.00005086,0.0001339
 6,0.00032523,0.00003046,0.00003123,-0.00000013,-0.00000917,-0.00004710
 ,-0.00000802,-0.00001513,0.00000785,-0.00001216,0.00000041,-0.00000311
 ,-0.00000642,0.00001074,0.00000130,0.00000533,-0.00000529,-0.00001602,
 -0.00000782,0.00001207,0.00000106,0.00000292,-0.00000323,-0.00000332,-
 0.00000268,0.00000343,0.00000276,0.00000064,-0.00000339,0.00001380,0.0
 0000782,-0.00000496,-0.00001793,-0.00001703,-0.00000105,0.00002260,0.0
 0002249,-0.00001091,-0.00000055,0.00002727,-0.00004094,-0.00001632,-0.
 00000686,0.00001060,-0.00000722,0.00000242,-0.00000904,0.00001397,-0.0
 0001022,0.00000788,0.00000189,-0.00001239,0.00000838,-0.00001007,0.000
 02247,0.00002394,0.00001098,-0.00001153,0.00001054,-0.00002317,-0.0000
 0263,0.00000409,0.00000356,0.00000049,-0.00000805,0.00001267,-0.000009
 39,0.00000888,-0.00000011,-0.00000593,0.00000367,-0.00000039,0.0000033
 7,0.00000254,-0.00000137,-0.00000920,0.00000200,-0.00000243,0.00001956
 ,-0.00000727,0.00000250,-0.00000913,0.00000481,-0.00000079,-0.00000110
 ,-0.00000220,0.00000017,-0.00000203,0.00000140,0.00000089,-0.00000228,
 -0.00000075,-0.00000004,0.00000484,0.00000143,0.00000050,0.00000104,-0
 .00000383,-0.00000050,-0.00000095,0.00000257,0.00009835,0.00094153,-0.
 00089071,-0.00003315,0.00028478,0.00006622,-0.00004448,-0.00006105,-0.
 00026946,0.00007740,-0.00006102,0.00016650,0.00056437,0.00051791,0.000
 00089,0.00020806,0.00013888,0.00003964,-0.00011537,-0.00005841,0.00010
 848,0.00007709,0.00007094,0.00010881,-0.06281766,-0.17497676,0.1185834
 9,-0.00948241,-0.01635683,0.01508336,-0.00183080,-0.00660753,0.0052589
 7,0.06872670,0.18903466,0.01017067,0.02084279,-0.02063301,0.00037636,0
 .00037455,0.00005938,-0.00028044,0.00084589,-0.00057431,0.00030916,-0.
 00382033,-0.00441104,0.00041031,0.00006424,-0.00018081,0.00007501,0.00
 009517,-0.00005626,-0.00000817,-0.00012098,-0.00016331,-0.00012206,0.0
 0000648,0.00009651,0.00022171,-0.00010265,-0.00016189,-0.00002051,-0.0
 0010817,0.00023553,-0.00000670,0.00015512,-0.00009018,0.00001238,-0.00
 011283,0.00004632,-0.00003425,0.00002034,0.00001903,-0.00006134,0.0000
 6620,-0.00001023,0.00006288,0.00002264,-0.00005759,0.00000582,-0.00006
 198,0.00003052,-0.00000274,-0.00000568,0.00001267,0.00000696,0.0000094
 2,-0.00000971,-0.00001080,0.00001191,-0.00000131,-0.00000932,0.0000041
 9,-0.00002493,0.00003450,0.00002401,0.00001103,0.00001246,-0.00001887,
 -0.00000484,-0.00000448,-0.00000822,-0.00004970,0.00000796,0.00000689,
 0.00002087,0.00001493,-0.00000262,0.00001238,-0.00001496,0.00000974,-0
 .00000384,-0.00000135,0.00001062,-0.00000530,-0.00000511,-0.00001629,-
 0.00001059,-0.00001560,0.00001114,0.00000170,0.00001184,-0.00000773,0.
 00000483,-0.00001526,0.00001179,0.00000944,-0.00000020,-0.00000214,-0.
 00000323,-0.00000058,0.00001981,-0.00001021,-0.00000313,-0.00000593,-0
 .00000526,0.00000406,0.00002570,-0.00001720,0.00000454,-0.00005837,0.0
 0003406,-0.00000650,0.00002826,-0.00001437,0.00000375,0.00000067,0.000
 00816,-0.00000038,0.00000372,-0.00000214,-0.00000168,0.00000665,0.0000
 0046,0.00000166,-0.00000794,-0.00000166,-0.00000247,-0.00000277,0.0000
 0824,0.00000144,0.00000302,-0.00000560,-0.00037392,0.00178861,0.000847
 15,-0.00036041,-0.00010261,0.00035533,0.00018044,-0.00098032,0.0003274
 4,0.00000239,-0.00014811,-0.00005171,0.00092728,0.00138646,0.00107526,
 0.00001335,-0.00027522,0.00045845,-0.00007375,-0.00008553,-0.00007248,
 -0.00074308,-0.00071525,-0.00002109,0.05672064,0.11691017,-0.15293819,
 -0.00085531,-0.00089090,0.00005265,-0.00279206,-0.00784540,0.00673629,
 -0.06376596,-0.12725935,0.16912826\\-0.00001242,-0.00002068,0.00001991
 ,-0.00000227,0.00000997,-0.00000310,-0.00000974,0.00000464,0.00000883,
 0.00001187,-0.00000697,-0.00001501,0.00000876,0.00002785,-0.00001527,0
 .00000340,0.00000050,-0.00000317,-0.00000024,-0.00000171,0.00000321,-0
 .00000654,0.00000063,0.00000514,0.00000724,-0.00002000,0.00000571,-0.0
 0000093,-0.00001525,0.00000253,-0.00000095,0.00001206,-0.00001094,0.00
 000152,0.00000907,-0.00000393,-0.00000032,-0.00000227,-0.00000128,-0.0
 0000803,0.00000891,0.00000147,0.00000070,-0.00001468,0.00000349,0.0000
 0426,-0.00000589,0.00000337,0.00000253,-0.00000262,0.00000057,0.000002
 82,0.00000405,-0.00000311,-0.00000608,0.00000479,-0.00000135,0.0000027
 9,-0.00001809,0.00002243,-0.00001892,0.00001422,-0.00003400,0.00001587
 ,0.00001310,0.00004462,-0.00000053,-0.00001932,-0.00001989,-0.00000263
 ,0.00001705,-0.00001158,0.00000149,-0.00000604,0.00000494,-0.00000102,
 -0.00001098,0.00000333,0.00000690,0.00000003,0.00000396,-0.00000395,0.
 00000366,0.00000139,-0.00000204,0.00000482,-0.00000470,0.00000025,0.00
 000527,-0.00000789,-0.00000072,-0.00000091,0.00000495,-0.00000282,-0.0
 0000617,0.00000683,-0.00000054,0.00000754,-0.00000460,0.00000166,-0.00
 001350,0.00000047,-0.00000026,0.00000496,-0.00000667,0.00000201,0.0000
 0643,0.00000206,-0.00000128,0.00000710,-0.00000429,-0.00000090,-0.0000
 0611,0.00000889,-0.00000097,0.00000105,-0.00000002,-0.00000211,0.00000
 344,0.00000283,-0.00000083,-0.00000089,0.00000479,0.00000089,-0.000003
 81,-0.00000024,0.00000113,-0.00000020,-0.00000406,0.00000979,-0.000007
 63,-0.00000447,0.00000084,0.00000076,0.00000169,-0.00000315,0.00000154
 ,0.00000283,0.00000078,0.00000030,-0.00000297,0.00000200,0.00000724,-0
 .00000370,0.00000007,0.00000106,-0.00000107,-0.00000265,-0.00000387,-0
 .00000132,0.00000289,-0.00000098,0.00000399,0.00000097,0.00000815,-0.0
 0000434,0.00000048,0.00000178,0.00000100,-0.00000018,0.00000184,-0.000
 00083,-0.00000090,-0.00000527,-0.00000145\\\@
 The archive entry for this job was punched.


 IN THE WOODS WE RETURN TO REASON AND FAITH.

                                 -- EMERSON
 Job cpu time:      10 days  1 hours 42 minutes  2.4 seconds.
 Elapsed time:       0 days  7 hours 40 minutes 54.7 seconds.
 File lengths (MBytes):  RWF=   6888 Int=      0 D2E=      0 Chk=     81 Scr=      1
 Normal termination of Gaussian 16 at Sat Nov  4 00:48:02 2023.
