 Entering Gaussian System, Link 0=g16
 Input=ph_fluorene_cp_phenyl_idp_8_1_m062x.com
 Output=ph_fluorene_cp_phenyl_idp_8_1_m062x.log
 Initial command:
 /arc/software/Gaussian/g16.c01/l1.exe "/tmp/Gau-4276.inp" -scrdir="/tmp/"
 Entering Link 1 = /arc/software/Gaussian/g16.c01/l1.exe PID=      4277.
  
 Copyright (c) 1988-2019, Gaussian, Inc.  All Rights Reserved.
  
 This is part of the Gaussian(R) 16 program.  It is based on
 the Gaussian(R) 09 system (copyright 2009, Gaussian, Inc.),
 the Gaussian(R) 03 system (copyright 2003, Gaussian, Inc.),
 the Gaussian(R) 98 system (copyright 1998, Gaussian, Inc.),
 the Gaussian(R) 94 system (copyright 1995, Gaussian, Inc.),
 the Gaussian 92(TM) system (copyright 1992, Gaussian, Inc.),
 the Gaussian 90(TM) system (copyright 1990, Gaussian, Inc.),
 the Gaussian 88(TM) system (copyright 1988, Gaussian, Inc.),
 the Gaussian 86(TM) system (copyright 1986, Carnegie Mellon
 University), and the Gaussian 82(TM) system (copyright 1983,
 Carnegie Mellon University). Gaussian is a federally registered
 trademark of Gaussian, Inc.
  
 This software contains proprietary and confidential information,
 including trade secrets, belonging to Gaussian, Inc.
  
 This software is provided under written license and may be
 used, copied, transmitted, or stored only in accord with that
 written license.
  
 The following legend is applicable only to US Government
 contracts under FAR:
  
                    RESTRICTED RIGHTS LEGEND
  
 Use, reproduction and disclosure by the US Government is
 subject to restrictions as set forth in subparagraphs (a)
 and (c) of the Commercial Computer Software - Restricted
 Rights clause in FAR 52.227-19.
  
 Gaussian, Inc.
 340 Quinnipiac St., Bldg. 40, Wallingford CT 06492
  
  
 ---------------------------------------------------------------
 Warning -- This program may not be used in any manner that
 competes with the business of Gaussian, Inc. or will provide
 assistance to any competitor of Gaussian, Inc.  The licensee
 of this program is prohibited from giving any competitor of
 Gaussian, Inc. access to this program.  By using this program,
 the user acknowledges that Gaussian, Inc. is engaged in the
 business of creating and licensing software in the field of
 computational chemistry and represents and warrants to the
 licensee that it is not a competitor of Gaussian, Inc. and that
 it will not use this program in any manner prohibited above.
 ---------------------------------------------------------------
  

 Cite this work as:
 Gaussian 16, Revision C.01,
 M. J. Frisch, G. W. Trucks, H. B. Schlegel, G. E. Scuseria, 
 M. A. Robb, J. R. Cheeseman, G. Scalmani, V. Barone, 
 G. A. Petersson, H. Nakatsuji, X. Li, M. Caricato, A. V. Marenich, 
 J. Bloino, B. G. Janesko, R. Gomperts, B. Mennucci, H. P. Hratchian, 
 J. V. Ortiz, A. F. Izmaylov, J. L. Sonnenberg, D. Williams-Young, 
 F. Ding, F. Lipparini, F. Egidi, J. Goings, B. Peng, A. Petrone, 
 T. Henderson, D. Ranasinghe, V. G. Zakrzewski, J. Gao, N. Rega, 
 G. Zheng, W. Liang, M. Hada, M. Ehara, K. Toyota, R. Fukuda, 
 J. Hasegawa, M. Ishida, T. Nakajima, Y. Honda, O. Kitao, H. Nakai, 
 T. Vreven, K. Throssell, J. A. Montgomery, Jr., J. E. Peralta, 
 F. Ogliaro, M. J. Bearpark, J. J. Heyd, E. N. Brothers, K. N. Kudin, 
 V. N. Staroverov, T. A. Keith, R. Kobayashi, J. Normand, 
 K. Raghavachari, A. P. Rendell, J. C. Burant, S. S. Iyengar, 
 J. Tomasi, M. Cossi, J. M. Millam, M. Klene, C. Adamo, R. Cammi, 
 J. W. Ochterski, R. L. Martin, K. Morokuma, O. Farkas, 
 J. B. Foresman, and D. J. Fox, Gaussian, Inc., Wallingford CT, 2019.
 
 ******************************************
 Gaussian 16:  ES64L-G16RevC.01  3-Jul-2019
                 3-Nov-2023 
 ******************************************
 %nprocshared=32
 Will use up to   32 processors via shared memory.
 %mem=8000MB
 %chk=ph_fluorene_cp_phenyl_idp_8_1_m062x.chk
 -----------------------------------------
 # opt freq=noraman m062x def2tzvp pop=nbo
 -----------------------------------------
 1/18=20,19=15,26=3,38=1/1,3;
 2/9=110,12=2,17=6,18=5,40=1/2;
 3/5=44,7=101,11=2,25=1,30=1,71=1,74=-55/1,2,3;
 4//1;
 5/5=2,38=5/2;
 6/7=2,8=2,9=2,10=2,28=1,40=1/1,7;
 7//1,2,3,16;
 1/18=20,19=15,26=3/3(2);
 2/9=110/2;
 99//99;
 2/9=110/2;
 3/5=44,7=101,11=2,25=1,30=1,71=1,74=-55/1,2,3;
 4/5=5,16=3,69=1/1;
 5/5=2,38=5/2;
 7//1,2,3,16;
 1/18=20,19=15,26=3/3(-5);
 2/9=110/2;
 6/7=2,8=2,9=2,10=2,19=2,28=1,40=1/1,7;
 99/9=1/99;
 ------------
 Structure697
 ------------
 Symbolic Z-matrix:
 Charge =  0 Multiplicity = 1
 C                    -4.7982   -5.007     7.2996 
 C                    -5.513    -3.8407    6.9949 
 C                    -6.689    -3.5282    7.6725 
 C                    -7.1599   -4.3828    8.6654 
 C                    -6.4642   -5.5458    8.9836 
 C                    -5.2895   -5.8545    8.3018 
 H                    -7.234    -2.6284    7.4262 
 H                    -6.8312   -6.2043    9.7574 
 H                    -5.1645   -3.1773    6.2172 
 H                    -4.7508   -6.7524    8.5667 
 H                    -8.0718   -4.1417    9.1927 
 C                    -1.4477   -4.645     5.5316 
 C                    -2.626    -4.3372    6.2125 
 C                    -3.5386   -5.3402    6.5712 
 C                    -3.2349   -6.6657    6.2264 
 H                    -0.7612   -3.8543    5.2697 
 H                    -2.8221   -3.3083    6.4747 
 H                    -3.9289   -7.4532    6.4775 
 C                    -1.1691   -5.9698    5.1997 
 C                    -2.0561   -6.9851    5.5455 
 C                    -0.2384   -7.9448    4.4164 
 C                    -0.0298   -6.5709    4.4952 
 C                     1.1187   -5.9985    3.9512 
 C                     2.0656   -6.8111    3.3267 
 C                     1.8819   -8.1987    3.2352 
 C                     0.7174   -8.7504    3.7899 
 H                     1.2834   -4.9332    4.0057 
 H                     2.944    -6.3521    2.8982 
 H                     0.5609   -9.8174    3.7461 
 C                    -3.1056   -10.2706   4.8658 
 C                    -2.5318   -9.0669    4.114 
 C                    -1.5517   -8.347     5.0796 
 C                    -1.3677   -9.3631    6.2391 
 C                    -1.9568   -10.6961   5.7708 
 H                    -3.3188   -8.4053    3.7482 
 H                    -2.0032   -9.4214    3.2276 
 H                    -0.3246   -9.4658    6.5427 
 H                    -1.9064   -9.0301    7.1278 
 H                    -3.9691   -9.9692    5.462 
 H                    -3.4283   -11.0682   4.1949 
 H                    -1.214    -11.2609   5.2039 
 H                    -2.2869   -11.3226   6.6008 
 C                     4.8002   -10.6891   1.3124 
 C                     3.4448   -10.9647   1.155 
 C                     2.4997   -10.1553   1.7807 
 C                     2.8971   -9.0649    2.5664 
 C                     4.2663   -8.804     2.7115 
 C                     5.2155   -9.6112    2.0892 
 H                     5.5351   -11.3162   0.8281 
 H                     3.1268   -11.8      0.548 
 H                     1.4506   -10.3704   1.6403 
 H                     4.6005   -7.9786    3.3229 
 H                     6.2686   -9.4031    2.2117 
 

 GradGradGradGradGradGradGradGradGradGradGradGradGradGradGradGradGradGrad
 Berny optimization.
 Initialization pass.
                           ----------------------------
                           !    Initial Parameters    !
                           ! (Angstroms and Degrees)  !
 --------------------------                            --------------------------
 ! Name  Definition              Value          Derivative Info.                !
 --------------------------------------------------------------------------------
 ! R1    R(1,2)                  1.4014         estimate D2E/DX2                !
 ! R2    R(1,6)                  1.4014         estimate D2E/DX2                !
 ! R3    R(1,14)                 1.4927         estimate D2E/DX2                !
 ! R4    R(2,3)                  1.3928         estimate D2E/DX2                !
 ! R5    R(2,9)                  1.08           estimate D2E/DX2                !
 ! R6    R(3,4)                  1.3921         estimate D2E/DX2                !
 ! R7    R(3,7)                  1.0804         estimate D2E/DX2                !
 ! R8    R(4,5)                  1.3921         estimate D2E/DX2                !
 ! R9    R(4,11)                 1.0806         estimate D2E/DX2                !
 ! R10   R(5,6)                  1.3929         estimate D2E/DX2                !
 ! R11   R(5,8)                  1.0803         estimate D2E/DX2                !
 ! R12   R(6,10)                 1.0801         estimate D2E/DX2                !
 ! R13   R(12,13)                1.3953         estimate D2E/DX2                !
 ! R14   R(12,16)                1.0794         estimate D2E/DX2                !
 ! R15   R(12,19)                1.3939         estimate D2E/DX2                !
 ! R16   R(13,14)                1.4027         estimate D2E/DX2                !
 ! R17   R(13,17)                1.0797         estimate D2E/DX2                !
 ! R18   R(14,15)                1.4029         estimate D2E/DX2                !
 ! R19   R(15,18)                1.0793         estimate D2E/DX2                !
 ! R20   R(15,20)                1.3983         estimate D2E/DX2                !
 ! R21   R(19,20)                1.3918         estimate D2E/DX2                !
 ! R22   R(19,22)                1.4682         estimate D2E/DX2                !
 ! R23   R(20,32)                1.5252         estimate D2E/DX2                !
 ! R24   R(21,22)                1.3919         estimate D2E/DX2                !
 ! R25   R(21,26)                1.3982         estimate D2E/DX2                !
 ! R26   R(21,32)                1.5252         estimate D2E/DX2                !
 ! R27   R(22,23)                1.3938         estimate D2E/DX2                !
 ! R28   R(23,24)                1.3953         estimate D2E/DX2                !
 ! R29   R(23,27)                1.0793         estimate D2E/DX2                !
 ! R30   R(24,25)                1.4027         estimate D2E/DX2                !
 ! R31   R(24,28)                1.0798         estimate D2E/DX2                !
 ! R32   R(25,26)                1.4029         estimate D2E/DX2                !
 ! R33   R(25,46)                1.4927         estimate D2E/DX2                !
 ! R34   R(26,29)                1.0793         estimate D2E/DX2                !
 ! R35   R(30,31)                1.5308         estimate D2E/DX2                !
 ! R36   R(30,34)                1.5231         estimate D2E/DX2                !
 ! R37   R(30,39)                1.0918         estimate D2E/DX2                !
 ! R38   R(30,40)                1.0911         estimate D2E/DX2                !
 ! R39   R(31,32)                1.5528         estimate D2E/DX2                !
 ! R40   R(31,35)                1.0913         estimate D2E/DX2                !
 ! R41   R(31,36)                1.0912         estimate D2E/DX2                !
 ! R42   R(32,33)                1.5527         estimate D2E/DX2                !
 ! R43   R(33,34)                1.5308         estimate D2E/DX2                !
 ! R44   R(33,37)                1.0912         estimate D2E/DX2                !
 ! R45   R(33,38)                1.0913         estimate D2E/DX2                !
 ! R46   R(34,41)                1.0918         estimate D2E/DX2                !
 ! R47   R(34,42)                1.091          estimate D2E/DX2                !
 ! R48   R(43,44)                1.3921         estimate D2E/DX2                !
 ! R49   R(43,48)                1.392          estimate D2E/DX2                !
 ! R50   R(43,49)                1.0807         estimate D2E/DX2                !
 ! R51   R(44,45)                1.3928         estimate D2E/DX2                !
 ! R52   R(44,50)                1.0804         estimate D2E/DX2                !
 ! R53   R(45,46)                1.4015         estimate D2E/DX2                !
 ! R54   R(45,51)                1.0801         estimate D2E/DX2                !
 ! R55   R(46,47)                1.4014         estimate D2E/DX2                !
 ! R56   R(47,48)                1.3928         estimate D2E/DX2                !
 ! R57   R(47,52)                1.0802         estimate D2E/DX2                !
 ! R58   R(48,53)                1.0804         estimate D2E/DX2                !
 ! A1    A(2,1,6)              118.6818         estimate D2E/DX2                !
 ! A2    A(2,1,14)             120.6682         estimate D2E/DX2                !
 ! A3    A(6,1,14)             120.65           estimate D2E/DX2                !
 ! A4    A(1,2,3)              120.7716         estimate D2E/DX2                !
 ! A5    A(1,2,9)              120.2106         estimate D2E/DX2                !
 ! A6    A(3,2,9)              119.0114         estimate D2E/DX2                !
 ! A7    A(2,3,4)              119.662          estimate D2E/DX2                !
 ! A8    A(2,3,7)              120.1243         estimate D2E/DX2                !
 ! A9    A(4,3,7)              120.2135         estimate D2E/DX2                !
 ! A10   A(3,4,5)              120.455          estimate D2E/DX2                !
 ! A11   A(3,4,11)             119.7699         estimate D2E/DX2                !
 ! A12   A(5,4,11)             119.7751         estimate D2E/DX2                !
 ! A13   A(4,5,6)              119.6538         estimate D2E/DX2                !
 ! A14   A(4,5,8)              120.2118         estimate D2E/DX2                !
 ! A15   A(6,5,8)              120.1341         estimate D2E/DX2                !
 ! A16   A(1,6,5)              120.7758         estimate D2E/DX2                !
 ! A17   A(1,6,10)             120.2165         estimate D2E/DX2                !
 ! A18   A(5,6,10)             119.0012         estimate D2E/DX2                !
 ! A19   A(13,12,16)           119.5983         estimate D2E/DX2                !
 ! A20   A(13,12,19)           119.6479         estimate D2E/DX2                !
 ! A21   A(16,12,19)           120.7536         estimate D2E/DX2                !
 ! A22   A(12,13,14)           121.0973         estimate D2E/DX2                !
 ! A23   A(12,13,17)           118.8226         estimate D2E/DX2                !
 ! A24   A(14,13,17)           120.0747         estimate D2E/DX2                !
 ! A25   A(1,14,13)            120.9427         estimate D2E/DX2                !
 ! A26   A(1,14,15)            120.8983         estimate D2E/DX2                !
 ! A27   A(13,14,15)           118.159          estimate D2E/DX2                !
 ! A28   A(14,15,18)           119.5394         estimate D2E/DX2                !
 ! A29   A(14,15,20)           121.1987         estimate D2E/DX2                !
 ! A30   A(18,15,20)           119.2558         estimate D2E/DX2                !
 ! A31   A(12,19,20)           120.4501         estimate D2E/DX2                !
 ! A32   A(12,19,22)           131.1838         estimate D2E/DX2                !
 ! A33   A(20,19,22)           108.366          estimate D2E/DX2                !
 ! A34   A(15,20,19)           119.4466         estimate D2E/DX2                !
 ! A35   A(15,20,32)           129.1617         estimate D2E/DX2                !
 ! A36   A(19,20,32)           111.3901         estimate D2E/DX2                !
 ! A37   A(22,21,26)           119.4481         estimate D2E/DX2                !
 ! A38   A(22,21,32)           111.3902         estimate D2E/DX2                !
 ! A39   A(26,21,32)           129.16           estimate D2E/DX2                !
 ! A40   A(19,22,21)           108.3603         estimate D2E/DX2                !
 ! A41   A(19,22,23)           131.1904         estimate D2E/DX2                !
 ! A42   A(21,22,23)           120.4492         estimate D2E/DX2                !
 ! A43   A(22,23,24)           119.6509         estimate D2E/DX2                !
 ! A44   A(22,23,27)           120.7554         estimate D2E/DX2                !
 ! A45   A(24,23,27)           119.5937         estimate D2E/DX2                !
 ! A46   A(23,24,25)           121.0929         estimate D2E/DX2                !
 ! A47   A(23,24,28)           118.824          estimate D2E/DX2                !
 ! A48   A(25,24,28)           120.0776         estimate D2E/DX2                !
 ! A49   A(24,25,26)           118.1603         estimate D2E/DX2                !
 ! A50   A(24,25,46)           120.9437         estimate D2E/DX2                !
 ! A51   A(26,25,46)           120.896          estimate D2E/DX2                !
 ! A52   A(21,26,25)           121.1983         estimate D2E/DX2                !
 ! A53   A(21,26,29)           119.252          estimate D2E/DX2                !
 ! A54   A(25,26,29)           119.5438         estimate D2E/DX2                !
 ! A55   A(31,30,34)           103.2242         estimate D2E/DX2                !
 ! A56   A(31,30,39)           110.3397         estimate D2E/DX2                !
 ! A57   A(31,30,40)           112.5631         estimate D2E/DX2                !
 ! A58   A(34,30,39)           110.4387         estimate D2E/DX2                !
 ! A59   A(34,30,40)           112.5958         estimate D2E/DX2                !
 ! A60   A(39,30,40)           107.6789         estimate D2E/DX2                !
 ! A61   A(30,31,32)           107.2019         estimate D2E/DX2                !
 ! A62   A(30,31,35)           111.7784         estimate D2E/DX2                !
 ! A63   A(30,31,36)           108.969          estimate D2E/DX2                !
 ! A64   A(32,31,35)           112.4923         estimate D2E/DX2                !
 ! A65   A(32,31,36)           110.4859         estimate D2E/DX2                !
 ! A66   A(35,31,36)           105.9029         estimate D2E/DX2                !
 ! A67   A(20,32,21)           100.493          estimate D2E/DX2                !
 ! A68   A(20,32,31)           113.2775         estimate D2E/DX2                !
 ! A69   A(20,32,33)           113.2927         estimate D2E/DX2                !
 ! A70   A(21,32,31)           113.287          estimate D2E/DX2                !
 ! A71   A(21,32,33)           113.2812         estimate D2E/DX2                !
 ! A72   A(31,32,33)           103.6375         estimate D2E/DX2                !
 ! A73   A(32,33,34)           107.2063         estimate D2E/DX2                !
 ! A74   A(32,33,37)           112.4973         estimate D2E/DX2                !
 ! A75   A(32,33,38)           110.4849         estimate D2E/DX2                !
 ! A76   A(34,33,37)           111.779          estimate D2E/DX2                !
 ! A77   A(34,33,38)           108.9588         estimate D2E/DX2                !
 ! A78   A(37,33,38)           105.9035         estimate D2E/DX2                !
 ! A79   A(30,34,33)           103.2247         estimate D2E/DX2                !
 ! A80   A(30,34,41)           110.4344         estimate D2E/DX2                !
 ! A81   A(30,34,42)           112.5963         estimate D2E/DX2                !
 ! A82   A(33,34,41)           110.3337         estimate D2E/DX2                !
 ! A83   A(33,34,42)           112.5657         estimate D2E/DX2                !
 ! A84   A(41,34,42)           107.6848         estimate D2E/DX2                !
 ! A85   A(44,43,48)           120.4563         estimate D2E/DX2                !
 ! A86   A(44,43,49)           119.7731         estimate D2E/DX2                !
 ! A87   A(48,43,49)           119.7705         estimate D2E/DX2                !
 ! A88   A(43,44,45)           119.6598         estimate D2E/DX2                !
 ! A89   A(43,44,50)           120.2098         estimate D2E/DX2                !
 ! A90   A(45,44,50)           120.1301         estimate D2E/DX2                !
 ! A91   A(44,45,46)           120.7691         estimate D2E/DX2                !
 ! A92   A(44,45,51)           119.0105         estimate D2E/DX2                !
 ! A93   A(46,45,51)           120.2141         estimate D2E/DX2                !
 ! A94   A(25,46,45)           120.6507         estimate D2E/DX2                !
 ! A95   A(25,46,47)           120.668          estimate D2E/DX2                !
 ! A96   A(45,46,47)           118.6813         estimate D2E/DX2                !
 ! A97   A(46,47,48)           120.7779         estimate D2E/DX2                !
 ! A98   A(46,47,52)           120.2093         estimate D2E/DX2                !
 ! A99   A(48,47,52)           119.0064         estimate D2E/DX2                !
 ! A100  A(43,48,47)           119.6555         estimate D2E/DX2                !
 ! A101  A(43,48,53)           120.2124         estimate D2E/DX2                !
 ! A102  A(47,48,53)           120.1318         estimate D2E/DX2                !
 ! D1    D(6,1,2,3)             -0.0418         estimate D2E/DX2                !
 ! D2    D(6,1,2,9)           -179.1149         estimate D2E/DX2                !
 ! D3    D(14,1,2,3)           179.9536         estimate D2E/DX2                !
 ! D4    D(14,1,2,9)             0.8805         estimate D2E/DX2                !
 ! D5    D(2,1,6,5)             -0.0372         estimate D2E/DX2                !
 ! D6    D(2,1,6,10)          -179.103          estimate D2E/DX2                !
 ! D7    D(14,1,6,5)           179.9674         estimate D2E/DX2                !
 ! D8    D(14,1,6,10)            0.9016         estimate D2E/DX2                !
 ! D9    D(2,1,14,13)           38.0286         estimate D2E/DX2                !
 ! D10   D(2,1,14,15)         -141.9699         estimate D2E/DX2                !
 ! D11   D(6,1,14,13)         -141.9761         estimate D2E/DX2                !
 ! D12   D(6,1,14,15)           38.0254         estimate D2E/DX2                !
 ! D13   D(1,2,3,4)              0.0821         estimate D2E/DX2                !
 ! D14   D(1,2,3,7)           -179.7382         estimate D2E/DX2                !
 ! D15   D(9,2,3,4)            179.1661         estimate D2E/DX2                !
 ! D16   D(9,2,3,7)             -0.6542         estimate D2E/DX2                !
 ! D17   D(2,3,4,5)             -0.0436         estimate D2E/DX2                !
 ! D18   D(2,3,4,11)           179.9594         estimate D2E/DX2                !
 ! D19   D(7,3,4,5)            179.7766         estimate D2E/DX2                !
 ! D20   D(7,3,4,11)            -0.2205         estimate D2E/DX2                !
 ! D21   D(3,4,5,6)             -0.0343         estimate D2E/DX2                !
 ! D22   D(3,4,5,8)            179.7682         estimate D2E/DX2                !
 ! D23   D(11,4,5,6)           179.9627         estimate D2E/DX2                !
 ! D24   D(11,4,5,8)            -0.2348         estimate D2E/DX2                !
 ! D25   D(4,5,6,1)              0.0751         estimate D2E/DX2                !
 ! D26   D(4,5,6,10)           179.1522         estimate D2E/DX2                !
 ! D27   D(8,5,6,1)           -179.7275         estimate D2E/DX2                !
 ! D28   D(8,5,6,10)            -0.6505         estimate D2E/DX2                !
 ! D29   D(16,12,13,14)       -179.8395         estimate D2E/DX2                !
 ! D30   D(16,12,13,17)         -0.6879         estimate D2E/DX2                !
 ! D31   D(19,12,13,14)          0.0331         estimate D2E/DX2                !
 ! D32   D(19,12,13,17)        179.1846         estimate D2E/DX2                !
 ! D33   D(13,12,19,20)         -0.144          estimate D2E/DX2                !
 ! D34   D(13,12,19,22)        179.7869         estimate D2E/DX2                !
 ! D35   D(16,12,19,20)        179.7271         estimate D2E/DX2                !
 ! D36   D(16,12,19,22)         -0.3421         estimate D2E/DX2                !
 ! D37   D(12,13,14,1)        -179.9982         estimate D2E/DX2                !
 ! D38   D(12,13,14,15)          0.0003         estimate D2E/DX2                !
 ! D39   D(17,13,14,1)           0.8608         estimate D2E/DX2                !
 ! D40   D(17,13,14,15)       -179.1407         estimate D2E/DX2                !
 ! D41   D(1,14,15,18)           0.974          estimate D2E/DX2                !
 ! D42   D(1,14,15,20)        -179.9246         estimate D2E/DX2                !
 ! D43   D(13,14,15,18)       -179.0245         estimate D2E/DX2                !
 ! D44   D(13,14,15,20)          0.0769         estimate D2E/DX2                !
 ! D45   D(14,15,20,19)         -0.1866         estimate D2E/DX2                !
 ! D46   D(14,15,20,32)       -179.6775         estimate D2E/DX2                !
 ! D47   D(18,15,20,19)        178.9173         estimate D2E/DX2                !
 ! D48   D(18,15,20,32)         -0.5736         estimate D2E/DX2                !
 ! D49   D(12,19,20,15)          0.2192         estimate D2E/DX2                !
 ! D50   D(12,19,20,32)        179.7953         estimate D2E/DX2                !
 ! D51   D(22,19,20,15)       -179.726          estimate D2E/DX2                !
 ! D52   D(22,19,20,32)         -0.1499         estimate D2E/DX2                !
 ! D53   D(12,19,22,21)       -179.7478         estimate D2E/DX2                !
 ! D54   D(12,19,22,23)          0.3089         estimate D2E/DX2                !
 ! D55   D(20,19,22,21)          0.1894         estimate D2E/DX2                !
 ! D56   D(20,19,22,23)       -179.7539         estimate D2E/DX2                !
 ! D57   D(15,20,32,21)        179.5795         estimate D2E/DX2                !
 ! D58   D(15,20,32,31)         58.4237         estimate D2E/DX2                !
 ! D59   D(15,20,32,33)        -59.2644         estimate D2E/DX2                !
 ! D60   D(19,20,32,21)          0.0556         estimate D2E/DX2                !
 ! D61   D(19,20,32,31)       -121.1002         estimate D2E/DX2                !
 ! D62   D(19,20,32,33)        121.2117         estimate D2E/DX2                !
 ! D63   D(26,21,22,19)       -179.7243         estimate D2E/DX2                !
 ! D64   D(26,21,22,23)          0.2262         estimate D2E/DX2                !
 ! D65   D(32,21,22,19)         -0.1564         estimate D2E/DX2                !
 ! D66   D(32,21,22,23)        179.7942         estimate D2E/DX2                !
 ! D67   D(22,21,26,25)         -0.1935         estimate D2E/DX2                !
 ! D68   D(22,21,26,29)        178.9172         estimate D2E/DX2                !
 ! D69   D(32,21,26,25)       -179.6746         estimate D2E/DX2                !
 ! D70   D(32,21,26,29)         -0.5639         estimate D2E/DX2                !
 ! D71   D(22,21,32,20)          0.0653         estimate D2E/DX2                !
 ! D72   D(22,21,32,31)        121.2143         estimate D2E/DX2                !
 ! D73   D(22,21,32,33)       -121.0991         estimate D2E/DX2                !
 ! D74   D(26,21,32,20)        179.58           estimate D2E/DX2                !
 ! D75   D(26,21,32,31)        -59.2709         estimate D2E/DX2                !
 ! D76   D(26,21,32,33)         58.4157         estimate D2E/DX2                !
 ! D77   D(19,22,23,24)        179.7869         estimate D2E/DX2                !
 ! D78   D(19,22,23,27)         -0.3315         estimate D2E/DX2                !
 ! D79   D(21,22,23,24)         -0.1506         estimate D2E/DX2                !
 ! D80   D(21,22,23,27)        179.7309         estimate D2E/DX2                !
 ! D81   D(22,23,24,25)          0.0393         estimate D2E/DX2                !
 ! D82   D(22,23,24,28)        179.1888         estimate D2E/DX2                !
 ! D83   D(27,23,24,25)       -179.8437         estimate D2E/DX2                !
 ! D84   D(27,23,24,28)         -0.6941         estimate D2E/DX2                !
 ! D85   D(23,24,25,26)         -0.0056         estimate D2E/DX2                !
 ! D86   D(23,24,25,46)       -179.9978         estimate D2E/DX2                !
 ! D87   D(28,24,25,26)       -179.1446         estimate D2E/DX2                !
 ! D88   D(28,24,25,46)          0.8632         estimate D2E/DX2                !
 ! D89   D(24,25,26,21)          0.0833         estimate D2E/DX2                !
 ! D90   D(24,25,26,29)       -179.0249         estimate D2E/DX2                !
 ! D91   D(46,25,26,21)       -179.9245         estimate D2E/DX2                !
 ! D92   D(46,25,26,29)          0.9673         estimate D2E/DX2                !
 ! D93   D(24,25,46,45)       -141.9723         estimate D2E/DX2                !
 ! D94   D(24,25,46,47)         38.022          estimate D2E/DX2                !
 ! D95   D(26,25,46,45)         38.0357         estimate D2E/DX2                !
 ! D96   D(26,25,46,47)       -141.97           estimate D2E/DX2                !
 ! D97   D(34,30,31,32)        -32.5698         estimate D2E/DX2                !
 ! D98   D(34,30,31,35)       -156.2767         estimate D2E/DX2                !
 ! D99   D(34,30,31,36)         87.0219         estimate D2E/DX2                !
 ! D100  D(39,30,31,32)         85.444          estimate D2E/DX2                !
 ! D101  D(39,30,31,35)        -38.2629         estimate D2E/DX2                !
 ! D102  D(39,30,31,36)       -154.9643         estimate D2E/DX2                !
 ! D103  D(40,30,31,32)       -154.2414         estimate D2E/DX2                !
 ! D104  D(40,30,31,35)         82.0517         estimate D2E/DX2                !
 ! D105  D(40,30,31,36)        -34.6497         estimate D2E/DX2                !
 ! D106  D(31,30,34,33)         39.5157         estimate D2E/DX2                !
 ! D107  D(31,30,34,41)        -78.4201         estimate D2E/DX2                !
 ! D108  D(31,30,34,42)        161.169          estimate D2E/DX2                !
 ! D109  D(39,30,34,33)        -78.4288         estimate D2E/DX2                !
 ! D110  D(39,30,34,41)        163.6354         estimate D2E/DX2                !
 ! D111  D(39,30,34,42)         43.2245         estimate D2E/DX2                !
 ! D112  D(40,30,34,33)        161.1653         estimate D2E/DX2                !
 ! D113  D(40,30,34,41)         43.2295         estimate D2E/DX2                !
 ! D114  D(40,30,34,42)        -77.1814         estimate D2E/DX2                !
 ! D115  D(30,31,32,20)       -110.7766         estimate D2E/DX2                !
 ! D116  D(30,31,32,21)        135.583          estimate D2E/DX2                !
 ! D117  D(30,31,32,33)         12.4076         estimate D2E/DX2                !
 ! D118  D(35,31,32,20)         12.4913         estimate D2E/DX2                !
 ! D119  D(35,31,32,21)       -101.1491         estimate D2E/DX2                !
 ! D120  D(35,31,32,33)        135.6755         estimate D2E/DX2                !
 ! D121  D(36,31,32,20)        130.6089         estimate D2E/DX2                !
 ! D122  D(36,31,32,21)         16.9685         estimate D2E/DX2                !
 ! D123  D(36,31,32,33)       -106.207          estimate D2E/DX2                !
 ! D124  D(20,32,33,34)        135.5911         estimate D2E/DX2                !
 ! D125  D(20,32,33,37)       -101.134          estimate D2E/DX2                !
 ! D126  D(20,32,33,38)         16.9869         estimate D2E/DX2                !
 ! D127  D(21,32,33,34)       -110.7623         estimate D2E/DX2                !
 ! D128  D(21,32,33,37)         12.5126         estimate D2E/DX2                !
 ! D129  D(21,32,33,38)        130.6334         estimate D2E/DX2                !
 ! D130  D(31,32,33,34)         12.417          estimate D2E/DX2                !
 ! D131  D(31,32,33,37)        135.6918         estimate D2E/DX2                !
 ! D132  D(31,32,33,38)       -106.1873         estimate D2E/DX2                !
 ! D133  D(32,33,34,30)        -32.5771         estimate D2E/DX2                !
 ! D134  D(32,33,34,41)         85.4292         estimate D2E/DX2                !
 ! D135  D(32,33,34,42)       -154.251          estimate D2E/DX2                !
 ! D136  D(37,33,34,30)       -156.2935         estimate D2E/DX2                !
 ! D137  D(37,33,34,41)        -38.2873         estimate D2E/DX2                !
 ! D138  D(37,33,34,42)         82.0325         estimate D2E/DX2                !
 ! D139  D(38,33,34,30)         87.0103         estimate D2E/DX2                !
 ! D140  D(38,33,34,41)       -154.9834         estimate D2E/DX2                !
 ! D141  D(38,33,34,42)        -34.6636         estimate D2E/DX2                !
 ! D142  D(48,43,44,45)         -0.0354         estimate D2E/DX2                !
 ! D143  D(48,43,44,50)        179.7573         estimate D2E/DX2                !
 ! D144  D(49,43,44,45)        179.9723         estimate D2E/DX2                !
 ! D145  D(49,43,44,50)         -0.235          estimate D2E/DX2                !
 ! D146  D(44,43,48,47)         -0.0379         estimate D2E/DX2                !
 ! D147  D(44,43,48,53)        179.771          estimate D2E/DX2                !
 ! D148  D(49,43,48,47)        179.9544         estimate D2E/DX2                !
 ! D149  D(49,43,48,53)         -0.2367         estimate D2E/DX2                !
 ! D150  D(43,44,45,46)          0.0687         estimate D2E/DX2                !
 ! D151  D(43,44,45,51)        179.1563         estimate D2E/DX2                !
 ! D152  D(50,44,45,46)       -179.7242         estimate D2E/DX2                !
 ! D153  D(50,44,45,51)         -0.6366         estimate D2E/DX2                !
 ! D154  D(44,45,46,25)        179.9663         estimate D2E/DX2                !
 ! D155  D(44,45,46,47)         -0.0281         estimate D2E/DX2                !
 ! D156  D(51,45,46,25)          0.8897         estimate D2E/DX2                !
 ! D157  D(51,45,46,47)       -179.1047         estimate D2E/DX2                !
 ! D158  D(25,46,47,48)        179.9594         estimate D2E/DX2                !
 ! D159  D(25,46,47,52)          0.8852         estimate D2E/DX2                !
 ! D160  D(45,46,47,48)         -0.0462         estimate D2E/DX2                !
 ! D161  D(45,46,47,52)       -179.1204         estimate D2E/DX2                !
 ! D162  D(46,47,48,43)          0.0792         estimate D2E/DX2                !
 ! D163  D(46,47,48,53)       -179.7299         estimate D2E/DX2                !
 ! D164  D(52,47,48,43)        179.1644         estimate D2E/DX2                !
 ! D165  D(52,47,48,53)         -0.6447         estimate D2E/DX2                !
 --------------------------------------------------------------------------------
 Trust Radius=3.00D-01 FncErr=1.00D-07 GrdErr=1.00D-06 EigMax=2.50D+02 EigMin=1.00D-04
 Number of steps in this run=    318 maximum allowed number of steps=    318.
 GradGradGradGradGradGradGradGradGradGradGradGradGradGradGradGradGradGrad

 Stoichiometry    C29H24
 Framework group  C1[X(C29H24)]
 Deg. of freedom   153
 Full point group                 C1      NOp   1
 Largest Abelian subgroup         C1      NOp   1
 Largest concise Abelian subgroup C1      NOp   1
                         Standard orientation:                         
 ---------------------------------------------------------------------
 Center     Atomic      Atomic             Coordinates (Angstroms)
 Number     Number       Type             X           Y           Z
 ---------------------------------------------------------------------
      1          6           0       -4.951936   -0.428768   -0.018444
      2          6           0       -5.842339   -1.217867    0.722192
      3          6           0       -7.207963   -0.944296    0.720203
      4          6           0       -7.695441    0.124192   -0.027217
      5          6           0       -6.827673    0.919593   -0.770276
      6          6           0       -5.462626    0.642700   -0.763554
      7          1           0       -7.884545   -1.556902    1.298372
      8          1           0       -7.210673    1.745507   -1.351872
      9          1           0       -5.473904   -2.040935    1.316484
     10          1           0       -4.800559    1.258081   -1.354796
     11          1           0       -8.754768    0.337619   -0.030540
     12          6           0       -1.651995   -2.324282   -0.006963
     13          6           0       -3.019048   -2.045173   -0.011309
     14          6           0       -3.488604   -0.723423   -0.013835
     15          6           0       -2.544758    0.314469   -0.011877
     16          1           0       -1.317384   -3.350496   -0.007722
     17          1           0       -3.718239   -2.867812   -0.026727
     18          1           0       -2.881395    1.339808    0.002233
     19          6           0       -0.734105   -1.275310   -0.004387
     20          6           0       -1.172557    0.045643   -0.009136
     21          6           0        1.172564    0.045606    0.009119
     22          6           0        0.734081   -1.275392    0.004309
     23          6           0        1.651919   -2.324295    0.006949
     24          6           0        3.019049   -2.045238    0.011281
     25          6           0        3.488571   -0.723460    0.013857
     26          6           0        2.544704    0.314440    0.011837
     27          1           0        1.317360   -3.350468    0.007599
     28          1           0        3.718234   -2.867906    0.026680
     29          1           0        2.881267    1.339831   -0.002229
     30          6           0       -0.319632    3.383328    0.691101
     31          6           0       -0.009650    1.980839    1.220514
     32          6           0       -0.000002    1.020983   -0.000067
     33          6           0        0.009692    1.980780   -1.220498
     34          6           0        0.319962    3.383207   -0.691193
     35          1           0       -0.720267    1.671919    1.988945
     36          1           0        0.968143    1.992614    1.704844
     37          1           0        0.720030    1.671779   -1.989078
     38          1           0       -0.968240    1.992869   -1.704623
     39          1           0       -1.398705    3.529118    0.611876
     40          1           0        0.074661    4.170623    1.335389
     41          1           0        1.399169    3.528633   -0.611883
     42          1           0       -0.074104    4.170562   -1.335517
     43          6           0        7.695370    0.124116    0.027216
     44          6           0        6.827597    0.919512    0.770288
     45          6           0        5.462611    0.642723    0.763682
     46          6           0        4.951903   -0.428732    0.018441
     47          6           0        5.842290   -1.217800   -0.722109
     48          6           0        7.207953   -0.944357   -0.720145
     49          1           0        8.754771    0.337508    0.030666
     50          1           0        7.210683    1.745410    1.352040
     51          1           0        4.800487    1.258105    1.354857
     52          1           0        5.473792   -2.041019   -1.316503
     53          1           0        7.884560   -1.556877   -1.298379
 ---------------------------------------------------------------------
 Rotational constants (GHZ):           0.4909399           0.0685695           0.0621324
 Standard basis: def2TZVP (5D, 7F)
 There are  1188 symmetry adapted cartesian basis functions of A   symmetry.
 There are  1043 symmetry adapted basis functions of A   symmetry.
  1043 basis functions,  1671 primitive gaussians,  1188 cartesian basis functions
    99 alpha electrons       99 beta electrons
       nuclear repulsion energy      2415.7544590996 Hartrees.
 NAtoms=   53 NActive=   53 NUniq=   53 SFac= 1.00D+00 NAtFMM=   60 NAOKFM=F Big=F
 Integral buffers will be    131072 words long.
 Raffenetti 2 integral format.
 Two-electron integral symmetry is turned on.
 One-electron integrals computed using PRISM.
   1 Symmetry operations used in ECPInt.
 ECPInt:  NShTT=   86320 NPrTT=  263160 LenC2=   66549 LenP2D=  139549.
 LDataN:  DoStor=T MaxTD1= 6 Len=  172
 Number of processors reduced to  23 by ecpmxn.
 NBasis=  1043 RedAO= T EigKep=  4.15D-06  NBF=  1043
 NBsUse=  1043 1.00D-06 EigRej= -1.00D+00 NBFU=  1043
 ExpMin= 9.52D-02 ExpMax= 1.36D+04 ExpMxC= 4.63D+02 IAcc=3 IRadAn=         5 AccDes= 0.00D+00
 Harris functional with IExCor= 1009 and IRadAn=       5 diagonalized for initial guess.
 HarFok:  IExCor= 1009 AccDes= 0.00D+00 IRadAn=         5 IDoV= 1 UseB2=F ITyADJ=14
 ICtDFT=  3500011 ScaDFX=  1.000000  1.000000  1.000000  1.000000
 FoFCou: FMM=F IPFlag=           0 FMFlag=      100000 FMFlg1=           0
         NFxFlg=           0 DoJE=T BraDBF=F KetDBF=T FulRan=T
         wScrn=  0.000000 ICntrl=       500 IOpCl=  0 I1Cent=   200000004 NGrid=           0
         NMat0=    1 NMatS0=      1 NMatT0=    0 NMatD0=    1 NMtDS0=    0 NMtDT0=    0
 Petite list used in FoFCou.
 Requested convergence on RMS density matrix=1.00D-08 within 128 cycles.
 Requested convergence on MAX density matrix=1.00D-06.
 Requested convergence on             energy=1.00D-06.
 No special actions if energy rises.
 Integral accuracy reduced to 1.0D-05 until final iterations.
 Problem detected with inexpensive integrals.
 Switching to full accuracy and repeating last cycle.
 SCF Done:  E(RM062X) =  -1119.49492989     A.U. after   14 cycles
            NFock= 14  Conv=0.38D-08     -V/T= 2.0053

 **********************************************************************

            Population analysis using the SCF Density.

 **********************************************************************

 Orbital symmetries:
       Occupied  (A) (A) (A) (A) (A) (A) (A) (A) (A) (A) (A) (A)
                 (A) (A) (A) (A) (A) (A) (A) (A) (A) (A) (A) (A)
                 (A) (A) (A) (A) (A) (A) (A) (A) (A) (A) (A) (A)
                 (A) (A) (A) (A) (A) (A) (A) (A) (A) (A) (A) (A)
                 (A) (A) (A) (A) (A) (A) (A) (A) (A) (A) (A) (A)
                 (A) (A) (A) (A) (A) (A) (A) (A) (A) (A) (A) (A)
                 (A) (A) (A) (A) (A) (A) (A) (A) (A) (A) (A) (A)
                 (A) (A) (A) (A) (A) (A) (A) (A) (A) (A) (A) (A)
                 (A) (A) (A)
       Virtual   (A) (A) (A) (A) (A) (A) (A) (A) (A) (A) (A) (A)
                 (A) (A) (A) (A) (A) (A) (A) (A) (A) (A) (A) (A)
                 (A) (A) (A) (A) (A) (A) (A) (A) (A) (A) (A) (A)
                 (A) (A) (A) (A) (A) (A) (A) (A) (A) (A) (A) (A)
                 (A) (A) (A) (A) (A) (A) (A) (A) (A) (A) (A) (A)
                 (A) (A) (A) (A) (A) (A) (A) (A) (A) (A) (A) (A)
                 (A) (A) (A) (A) (A) (A) (A) (A) (A) (A) (A) (A)
                 (A) (A) (A) (A) (A) (A) (A) (A) (A) (A) (A) (A)
                 (A) (A) (A) (A) (A) (A) (A) (A) (A) (A) (A) (A)
                 (A) (A) (A) (A) (A) (A) (A) (A) (A) (A) (A) (A)
                 (A) (A) (A) (A) (A) (A) (A) (A) (A) (A) (A) (A)
                 (A) (A) (A) (A) (A) (A) (A) (A) (A) (A) (A) (A)
                 (A) (A) (A) (A) (A) (A) (A) (A) (A) (A) (A) (A)
                 (A) (A) (A) (A) (A) (A) (A) (A) (A) (A) (A) (A)
                 (A) (A) (A) (A) (A) (A) (A) (A) (A) (A) (A) (A)
                 (A) (A) (A) (A) (A) (A) (A) (A) (A) (A) (A) (A)
                 (A) (A) (A) (A) (A) (A) (A) (A) (A) (A) (A) (A)
                 (A) (A) (A) (A) (A) (A) (A) (A) (A) (A) (A) (A)
                 (A) (A) (A) (A) (A) (A) (A) (A) (A) (A) (A) (A)
                 (A) (A) (A) (A) (A) (A) (A) (A) (A) (A) (A) (A)
                 (A) (A) (A) (A) (A) (A) (A) (A) (A) (A) (A) (A)
                 (A) (A) (A) (A) (A) (A) (A) (A) (A) (A) (A) (A)
                 (A) (A) (A) (A) (A) (A) (A) (A) (A) (A) (A) (A)
                 (A) (A) (A) (A) (A) (A) (A) (A) (A) (A) (A) (A)
                 (A) (A) (A) (A) (A) (A) (A) (A) (A) (A) (A) (A)
                 (A) (A) (A) (A) (A) (A) (A) (A) (A) (A) (A) (A)
                 (A) (A) (A) (A) (A) (A) (A) (A) (A) (A) (A) (A)
                 (A) (A) (A) (A) (A) (A) (A) (A) (A) (A) (A) (A)
                 (A) (A) (A) (A) (A) (A) (A) (A) (A) (A) (A) (A)
                 (A) (A) (A) (A) (A) (A) (A) (A) (A) (A) (A) (A)
                 (A) (A) (A) (A) (A) (A) (A) (A) (A) (A) (A) (A)
                 (A) (A) (A) (A) (A) (A) (A) (A) (A) (A) (A) (A)
                 (A) (A) (A) (A) (A) (A) (A) (A) (A) (A) (A) (A)
                 (A) (A) (A) (A) (A) (A) (A) (A) (A) (A) (A) (A)
                 (A) (A) (A) (A) (A) (A) (A) (A) (A) (A) (A) (A)
                 (A) (A) (A) (A) (A) (A) (A) (A) (A) (A) (A) (A)
                 (A) (A) (A) (A) (A) (A) (A) (A) (A) (A) (A) (A)
                 (A) (A) (A) (A) (A) (A) (A) (A) (A) (A) (A) (A)
                 (A) (A) (A) (A) (A) (A) (A) (A) (A) (A) (A) (A)
                 (A) (A) (A) (A) (A) (A) (A) (A) (A) (A) (A) (A)
                 (A) (A) (A) (A) (A) (A) (A) (A) (A) (A) (A) (A)
                 (A) (A) (A) (A) (A) (A) (A) (A) (A) (A) (A) (A)
                 (A) (A) (A) (A) (A) (A) (A) (A) (A) (A) (A) (A)
                 (A) (A) (A) (A) (A) (A) (A) (A) (A) (A) (A) (A)
                 (A) (A) (A) (A) (A) (A) (A) (A) (A) (A) (A) (A)
                 (A) (A) (A) (A) (A) (A) (A) (A) (A) (A) (A) (A)
                 (A) (A) (A) (A) (A) (A) (A) (A) (A) (A) (A) (A)
                 (A) (A) (A) (A) (A) (A) (A) (A) (A) (A) (A) (A)
                 (A) (A) (A) (A) (A) (A) (A) (A) (A) (A) (A) (A)
                 (A) (A) (A) (A) (A) (A) (A) (A) (A) (A) (A) (A)
                 (A) (A) (A) (A) (A) (A) (A) (A) (A) (A) (A) (A)
                 (A) (A) (A) (A) (A) (A) (A) (A) (A) (A) (A) (A)
                 (A) (A) (A) (A) (A) (A) (A) (A) (A) (A) (A) (A)
                 (A) (A) (A) (A) (A) (A) (A) (A) (A) (A) (A) (A)
                 (A) (A) (A) (A) (A) (A) (A) (A) (A) (A) (A) (A)
                 (A) (A) (A) (A) (A) (A) (A) (A) (A) (A) (A) (A)
                 (A) (A) (A) (A) (A) (A) (A) (A) (A) (A) (A) (A)
                 (A) (A) (A) (A) (A) (A) (A) (A) (A) (A) (A) (A)
                 (A) (A) (A) (A) (A) (A) (A) (A) (A) (A) (A) (A)
                 (A) (A) (A) (A) (A) (A) (A) (A) (A) (A) (A) (A)
                 (A) (A) (A) (A) (A) (A) (A) (A) (A) (A) (A) (A)
                 (A) (A) (A) (A) (A) (A) (A) (A) (A) (A) (A) (A)
                 (A) (A) (A) (A) (A) (A) (A) (A) (A) (A) (A) (A)
                 (A) (A) (A) (A) (A) (A) (A) (A) (A) (A) (A) (A)
                 (A) (A) (A) (A) (A) (A) (A) (A) (A) (A) (A) (A)
                 (A) (A) (A) (A) (A) (A) (A) (A) (A) (A) (A) (A)
                 (A) (A) (A) (A) (A) (A) (A) (A) (A) (A) (A) (A)
                 (A) (A) (A) (A) (A) (A) (A) (A) (A) (A) (A) (A)
                 (A) (A) (A) (A) (A) (A) (A) (A) (A) (A) (A) (A)
                 (A) (A) (A) (A) (A) (A) (A) (A) (A) (A) (A) (A)
                 (A) (A) (A) (A) (A) (A) (A) (A) (A) (A) (A) (A)
                 (A) (A) (A) (A) (A) (A) (A) (A) (A) (A) (A) (A)
                 (A) (A) (A) (A) (A) (A) (A) (A) (A) (A) (A) (A)
                 (A) (A) (A) (A) (A) (A) (A) (A) (A) (A) (A) (A)
                 (A) (A) (A) (A) (A) (A) (A) (A) (A) (A) (A) (A)
                 (A) (A) (A) (A) (A) (A) (A) (A) (A) (A) (A) (A)
                 (A) (A) (A) (A) (A) (A) (A) (A) (A) (A) (A) (A)
                 (A) (A) (A) (A) (A) (A) (A) (A) (A) (A) (A) (A)
                 (A) (A) (A) (A) (A) (A) (A) (A)
 The electronic state is 1-A.
 Alpha  occ. eigenvalues --  -10.55975 -10.55579 -10.55579 -10.55505 -10.55504
 Alpha  occ. eigenvalues --  -10.54596 -10.54592 -10.54515 -10.54479 -10.54394
 Alpha  occ. eigenvalues --  -10.54394 -10.54390 -10.54385 -10.54379 -10.54379
 Alpha  occ. eigenvalues --  -10.54350 -10.54350 -10.54317 -10.54317 -10.54300
 Alpha  occ. eigenvalues --  -10.54300 -10.54235 -10.54234 -10.54155 -10.54155
 Alpha  occ. eigenvalues --  -10.53412 -10.53410 -10.53125 -10.53087  -1.00280
 Alpha  occ. eigenvalues --   -0.97316  -0.96708  -0.94589  -0.94225  -0.90319
 Alpha  occ. eigenvalues --   -0.86545  -0.86523  -0.84724  -0.84517  -0.83684
 Alpha  occ. eigenvalues --   -0.83177  -0.80889  -0.79448  -0.79240  -0.73195
 Alpha  occ. eigenvalues --   -0.71140  -0.69865  -0.69135  -0.68712  -0.66521
 Alpha  occ. eigenvalues --   -0.66225  -0.65961  -0.64825  -0.62969  -0.60358
 Alpha  occ. eigenvalues --   -0.59489  -0.58086  -0.56106  -0.55927  -0.54462
 Alpha  occ. eigenvalues --   -0.54261  -0.52948  -0.52428  -0.51649  -0.51189
 Alpha  occ. eigenvalues --   -0.50733  -0.50484  -0.49592  -0.49167  -0.49037
 Alpha  occ. eigenvalues --   -0.48892  -0.48306  -0.47703  -0.47526  -0.45071
 Alpha  occ. eigenvalues --   -0.44768  -0.44366  -0.44010  -0.42318  -0.41962
 Alpha  occ. eigenvalues --   -0.41761  -0.41077  -0.40420  -0.40359  -0.39937
 Alpha  occ. eigenvalues --   -0.39752  -0.39391  -0.39363  -0.38864  -0.37843
 Alpha  occ. eigenvalues --   -0.37029  -0.35437  -0.32183  -0.31044  -0.31035
 Alpha  occ. eigenvalues --   -0.30288  -0.29912  -0.29321  -0.25356
 Alpha virt. eigenvalues --   -0.02601   0.00523   0.00996   0.01785   0.01886
 Alpha virt. eigenvalues --    0.03036   0.04154   0.05665   0.07044   0.07869
 Alpha virt. eigenvalues --    0.08552   0.08736   0.08855   0.09575   0.10095
 Alpha virt. eigenvalues --    0.10296   0.10811   0.10828   0.11522   0.12294
 Alpha virt. eigenvalues --    0.12761   0.12921   0.13023   0.13855   0.13869
 Alpha virt. eigenvalues --    0.14336   0.14789   0.15188   0.15860   0.15933
 Alpha virt. eigenvalues --    0.16323   0.16334   0.17552   0.17754   0.17820
 Alpha virt. eigenvalues --    0.18780   0.19303   0.19311   0.20083   0.20413
 Alpha virt. eigenvalues --    0.21304   0.21418   0.21732   0.22141   0.22479
 Alpha virt. eigenvalues --    0.22585   0.23011   0.23079   0.23273   0.23627
 Alpha virt. eigenvalues --    0.23884   0.24396   0.24675   0.25048   0.25432
 Alpha virt. eigenvalues --    0.25518   0.25778   0.25927   0.25939   0.26304
 Alpha virt. eigenvalues --    0.26582   0.26611   0.26956   0.27115   0.27585
 Alpha virt. eigenvalues --    0.28654   0.28799   0.28998   0.29406   0.29969
 Alpha virt. eigenvalues --    0.30135   0.30659   0.30919   0.31790   0.32215
 Alpha virt. eigenvalues --    0.32424   0.32426   0.32947   0.33045   0.33441
 Alpha virt. eigenvalues --    0.33521   0.34894   0.35067   0.35150   0.36074
 Alpha virt. eigenvalues --    0.36531   0.36776   0.36823   0.37221   0.37318
 Alpha virt. eigenvalues --    0.37615   0.37926   0.38505   0.38519   0.38831
 Alpha virt. eigenvalues --    0.39078   0.40012   0.40013   0.40569   0.40743
 Alpha virt. eigenvalues --    0.41195   0.41568   0.41711   0.41984   0.42411
 Alpha virt. eigenvalues --    0.42580   0.42723   0.42738   0.43493   0.43691
 Alpha virt. eigenvalues --    0.43846   0.43884   0.44298   0.44395   0.44715
 Alpha virt. eigenvalues --    0.44912   0.45185   0.45222   0.45675   0.45790
 Alpha virt. eigenvalues --    0.46453   0.46558   0.46697   0.46743   0.47120
 Alpha virt. eigenvalues --    0.47231   0.47560   0.47805   0.48433   0.48616
 Alpha virt. eigenvalues --    0.49074   0.49254   0.49907   0.49982   0.50077
 Alpha virt. eigenvalues --    0.50522   0.51456   0.51537   0.52218   0.52699
 Alpha virt. eigenvalues --    0.52975   0.53012   0.53155   0.53862   0.54296
 Alpha virt. eigenvalues --    0.54499   0.54624   0.54943   0.55155   0.55702
 Alpha virt. eigenvalues --    0.56162   0.56412   0.56827   0.57510   0.57590
 Alpha virt. eigenvalues --    0.59000   0.59007   0.59150   0.60122   0.60339
 Alpha virt. eigenvalues --    0.60901   0.61983   0.62418   0.62452   0.63088
 Alpha virt. eigenvalues --    0.63370   0.64732   0.65653   0.65669   0.66611
 Alpha virt. eigenvalues --    0.66735   0.67245   0.67761   0.67919   0.68461
 Alpha virt. eigenvalues --    0.68487   0.69942   0.70358   0.70388   0.70644
 Alpha virt. eigenvalues --    0.71266   0.71388   0.72282   0.72930   0.72935
 Alpha virt. eigenvalues --    0.73319   0.73766   0.74197   0.74695   0.74900
 Alpha virt. eigenvalues --    0.75218   0.75699   0.75854   0.75971   0.77067
 Alpha virt. eigenvalues --    0.77318   0.77713   0.78261   0.78542   0.78786
 Alpha virt. eigenvalues --    0.79164   0.79675   0.79826   0.80043   0.80653
 Alpha virt. eigenvalues --    0.80758   0.81740   0.81766   0.82469   0.83567
 Alpha virt. eigenvalues --    0.83679   0.84210   0.84224   0.85516   0.85662
 Alpha virt. eigenvalues --    0.86152   0.86722   0.87845   0.88201   0.88549
 Alpha virt. eigenvalues --    0.88577   0.89581   0.89756   0.90197   0.90822
 Alpha virt. eigenvalues --    0.91098   0.91155   0.91710   0.92338   0.92946
 Alpha virt. eigenvalues --    0.93583   0.93677   0.93958   0.94376   0.95736
 Alpha virt. eigenvalues --    0.96063   0.96197   0.97087   0.97333   0.97827
 Alpha virt. eigenvalues --    0.97935   0.98196   0.98371   0.99326   1.00386
 Alpha virt. eigenvalues --    1.01135   1.02201   1.02549   1.03445   1.03525
 Alpha virt. eigenvalues --    1.03778   1.04222   1.04873   1.05533   1.06155
 Alpha virt. eigenvalues --    1.06452   1.06516   1.07431   1.07572   1.08097
 Alpha virt. eigenvalues --    1.08430   1.09572   1.09638   1.11511   1.11627
 Alpha virt. eigenvalues --    1.11882   1.13373   1.13616   1.13899   1.14802
 Alpha virt. eigenvalues --    1.14982   1.16129   1.16318   1.17564   1.18844
 Alpha virt. eigenvalues --    1.19058   1.19183   1.19506   1.20329   1.20494
 Alpha virt. eigenvalues --    1.21449   1.22116   1.22320   1.22850   1.23290
 Alpha virt. eigenvalues --    1.23742   1.24062   1.24643   1.25359   1.25739
 Alpha virt. eigenvalues --    1.25762   1.26342   1.27252   1.27462   1.27577
 Alpha virt. eigenvalues --    1.29102   1.29212   1.29786   1.30467   1.30749
 Alpha virt. eigenvalues --    1.31014   1.31293   1.32037   1.32055   1.32251
 Alpha virt. eigenvalues --    1.33280   1.33462   1.34095   1.34723   1.35332
 Alpha virt. eigenvalues --    1.35701   1.37097   1.37290   1.37938   1.38333
 Alpha virt. eigenvalues --    1.38409   1.39723   1.40135   1.40674   1.41173
 Alpha virt. eigenvalues --    1.41764   1.42800   1.43061   1.43387   1.44158
 Alpha virt. eigenvalues --    1.44918   1.46377   1.46484   1.47484   1.48316
 Alpha virt. eigenvalues --    1.48382   1.48883   1.49114   1.49563   1.50619
 Alpha virt. eigenvalues --    1.51109   1.51187   1.52187   1.52206   1.53694
 Alpha virt. eigenvalues --    1.54006   1.55440   1.55556   1.55687   1.56205
 Alpha virt. eigenvalues --    1.56493   1.57634   1.58099   1.58124   1.58427
 Alpha virt. eigenvalues --    1.59142   1.59231   1.59909   1.60760   1.60927
 Alpha virt. eigenvalues --    1.61157   1.61511   1.61852   1.62768   1.63565
 Alpha virt. eigenvalues --    1.64118   1.64344   1.65012   1.65352   1.66413
 Alpha virt. eigenvalues --    1.66471   1.67152   1.67460   1.68446   1.68575
 Alpha virt. eigenvalues --    1.69454   1.70681   1.70895   1.71630   1.71641
 Alpha virt. eigenvalues --    1.72069   1.72329   1.73606   1.73855   1.74775
 Alpha virt. eigenvalues --    1.75156   1.76118   1.76280   1.76551   1.76798
 Alpha virt. eigenvalues --    1.77205   1.77375   1.77472   1.78279   1.78368
 Alpha virt. eigenvalues --    1.79577   1.80044   1.80339   1.80724   1.81483
 Alpha virt. eigenvalues --    1.81532   1.82167   1.84871   1.85450   1.86497
 Alpha virt. eigenvalues --    1.86717   1.87866   1.88381   1.89287   1.89869
 Alpha virt. eigenvalues --    1.90715   1.91188   1.91431   1.92077   1.92643
 Alpha virt. eigenvalues --    1.93430   1.93692   1.93907   1.95140   1.95521
 Alpha virt. eigenvalues --    1.96069   1.96661   1.98181   1.98589   1.99504
 Alpha virt. eigenvalues --    2.00788   2.01473   2.02630   2.03857   2.04214
 Alpha virt. eigenvalues --    2.05359   2.05377   2.06257   2.06329   2.06845
 Alpha virt. eigenvalues --    2.07265   2.07349   2.08672   2.09129   2.09854
 Alpha virt. eigenvalues --    2.10108   2.10247   2.10578   2.11502   2.12238
 Alpha virt. eigenvalues --    2.12433   2.13382   2.14255   2.14970   2.16306
 Alpha virt. eigenvalues --    2.17722   2.18222   2.18651   2.19868   2.20169
 Alpha virt. eigenvalues --    2.20649   2.21007   2.21829   2.23772   2.24315
 Alpha virt. eigenvalues --    2.24635   2.24896   2.25255   2.25555   2.26219
 Alpha virt. eigenvalues --    2.26268   2.26554   2.27377   2.27626   2.28165
 Alpha virt. eigenvalues --    2.28871   2.30433   2.30585   2.32327   2.32631
 Alpha virt. eigenvalues --    2.34009   2.34347   2.35083   2.36471   2.36886
 Alpha virt. eigenvalues --    2.38288   2.39055   2.40656   2.41188   2.41856
 Alpha virt. eigenvalues --    2.42408   2.42846   2.43108   2.44308   2.45574
 Alpha virt. eigenvalues --    2.46670   2.46713   2.47719   2.48022   2.48597
 Alpha virt. eigenvalues --    2.49137   2.49432   2.50523   2.51356   2.51473
 Alpha virt. eigenvalues --    2.52813   2.53224   2.53443   2.54317   2.55245
 Alpha virt. eigenvalues --    2.55337   2.56169   2.57009   2.57154   2.57759
 Alpha virt. eigenvalues --    2.59029   2.59405   2.60515   2.61209   2.61318
 Alpha virt. eigenvalues --    2.61574   2.61790   2.62665   2.62971   2.63221
 Alpha virt. eigenvalues --    2.64107   2.64268   2.64823   2.64921   2.66360
 Alpha virt. eigenvalues --    2.66454   2.67044   2.67279   2.67388   2.67423
 Alpha virt. eigenvalues --    2.67697   2.68680   2.68895   2.69109   2.69323
 Alpha virt. eigenvalues --    2.69634   2.70061   2.70293   2.70952   2.71100
 Alpha virt. eigenvalues --    2.71832   2.71947   2.72767   2.72925   2.73366
 Alpha virt. eigenvalues --    2.73742   2.74313   2.74812   2.75145   2.75373
 Alpha virt. eigenvalues --    2.75647   2.75822   2.76525   2.76772   2.77949
 Alpha virt. eigenvalues --    2.78063   2.78485   2.78607   2.79002   2.79081
 Alpha virt. eigenvalues --    2.79723   2.80199   2.81027   2.81572   2.82184
 Alpha virt. eigenvalues --    2.82945   2.83195   2.83408   2.84277   2.84584
 Alpha virt. eigenvalues --    2.84599   2.85208   2.85419   2.85428   2.86550
 Alpha virt. eigenvalues --    2.86775   2.86832   2.87613   2.87787   2.88478
 Alpha virt. eigenvalues --    2.88724   2.88945   2.89081   2.89795   2.90191
 Alpha virt. eigenvalues --    2.90436   2.92417   2.92445   2.94758   2.94813
 Alpha virt. eigenvalues --    2.95379   2.95474   2.95651   2.96198   2.96588
 Alpha virt. eigenvalues --    2.97206   2.99302   3.00140   3.00445   3.00502
 Alpha virt. eigenvalues --    3.01340   3.01956   3.02963   3.03099   3.03610
 Alpha virt. eigenvalues --    3.03714   3.04533   3.04586   3.05734   3.06115
 Alpha virt. eigenvalues --    3.06332   3.06693   3.07767   3.08158   3.08173
 Alpha virt. eigenvalues --    3.08604   3.09170   3.09335   3.10153   3.10337
 Alpha virt. eigenvalues --    3.10772   3.11046   3.11286   3.12851   3.12890
 Alpha virt. eigenvalues --    3.13737   3.14913   3.15241   3.15406   3.15583
 Alpha virt. eigenvalues --    3.15789   3.15985   3.16691   3.16793   3.17631
 Alpha virt. eigenvalues --    3.18410   3.18576   3.19399   3.19525   3.19923
 Alpha virt. eigenvalues --    3.20010   3.21027   3.21156   3.21371   3.21497
 Alpha virt. eigenvalues --    3.21750   3.22179   3.22987   3.23125   3.23607
 Alpha virt. eigenvalues --    3.25107   3.25575   3.26210   3.26606   3.26805
 Alpha virt. eigenvalues --    3.27213   3.27635   3.28740   3.28903   3.29593
 Alpha virt. eigenvalues --    3.30025   3.30213   3.30625   3.30664   3.31149
 Alpha virt. eigenvalues --    3.31603   3.32055   3.32344   3.33148   3.33213
 Alpha virt. eigenvalues --    3.33417   3.33744   3.34106   3.35199   3.35527
 Alpha virt. eigenvalues --    3.36692   3.36729   3.37546   3.37821   3.38100
 Alpha virt. eigenvalues --    3.38349   3.38756   3.39092   3.39205   3.39682
 Alpha virt. eigenvalues --    3.40129   3.40665   3.40871   3.41190   3.41399
 Alpha virt. eigenvalues --    3.42598   3.42890   3.42967   3.43428   3.44060
 Alpha virt. eigenvalues --    3.44358   3.44826   3.45300   3.45783   3.46784
 Alpha virt. eigenvalues --    3.46941   3.47265   3.47551   3.48090   3.48225
 Alpha virt. eigenvalues --    3.48598   3.49498   3.49955   3.50248   3.51124
 Alpha virt. eigenvalues --    3.51767   3.52262   3.52294   3.53366   3.53568
 Alpha virt. eigenvalues --    3.53656   3.54161   3.54375   3.54415   3.54915
 Alpha virt. eigenvalues --    3.56689   3.56950   3.57476   3.58276   3.58378
 Alpha virt. eigenvalues --    3.58380   3.58674   3.59226   3.59496   3.59564
 Alpha virt. eigenvalues --    3.60960   3.61793   3.62974   3.63546   3.63563
 Alpha virt. eigenvalues --    3.64416   3.64858   3.65590   3.66853   3.67587
 Alpha virt. eigenvalues --    3.68352   3.68461   3.68870   3.69476   3.69970
 Alpha virt. eigenvalues --    3.71336   3.71571   3.72836   3.75057   3.76891
 Alpha virt. eigenvalues --    3.77149   3.77241   3.77965   3.77977   3.78930
 Alpha virt. eigenvalues --    3.79707   3.81125   3.81226   3.81848   3.83435
 Alpha virt. eigenvalues --    3.85006   3.86946   3.88800   3.89777   3.89969
 Alpha virt. eigenvalues --    3.90757   3.91875   3.92981   3.94357   3.94838
 Alpha virt. eigenvalues --    3.95726   3.95843   3.96584   3.97026   3.98314
 Alpha virt. eigenvalues --    3.99071   3.99546   4.01416   4.03013   4.03027
 Alpha virt. eigenvalues --    4.03669   4.04330   4.04540   4.05141   4.05902
 Alpha virt. eigenvalues --    4.05998   4.06285   4.06887   4.07731   4.07803
 Alpha virt. eigenvalues --    4.09000   4.09528   4.10586   4.12727   4.13115
 Alpha virt. eigenvalues --    4.13648   4.13715   4.14795   4.15120   4.15352
 Alpha virt. eigenvalues --    4.15942   4.16431   4.17010   4.17837   4.18497
 Alpha virt. eigenvalues --    4.18541   4.19172   4.19215   4.19543   4.19893
 Alpha virt. eigenvalues --    4.20016   4.20346   4.20571   4.21449   4.21904
 Alpha virt. eigenvalues --    4.22557   4.22604   4.22877   4.24136   4.25285
 Alpha virt. eigenvalues --    4.25368   4.25735   4.27346   4.27765   4.27828
 Alpha virt. eigenvalues --    4.28972   4.29592   4.31535   4.31951   4.32666
 Alpha virt. eigenvalues --    4.33899   4.34056   4.35697   4.36295   4.37085
 Alpha virt. eigenvalues --    4.37688   4.39527   4.39638   4.40557   4.40848
 Alpha virt. eigenvalues --    4.44902   4.44988   4.46555   4.48661   4.49083
 Alpha virt. eigenvalues --    4.49919   4.50393   4.51897   4.53511   4.53524
 Alpha virt. eigenvalues --    4.54498   4.56134   4.58027   4.58065   4.58535
 Alpha virt. eigenvalues --    4.59780   4.61486   4.61499   4.63078   4.64376
 Alpha virt. eigenvalues --    4.65119   4.65957   4.66022   4.66619   4.68339
 Alpha virt. eigenvalues --    4.70022   4.72729   4.73847   4.75358   4.75860
 Alpha virt. eigenvalues --    4.78041   4.78207   4.79715   4.81816   4.83502
 Alpha virt. eigenvalues --    4.84778   4.85293   4.85769   4.86682   4.87380
 Alpha virt. eigenvalues --    4.89362   4.89762   4.91717   4.92644   4.92914
 Alpha virt. eigenvalues --    4.94321   4.96241   4.96728   4.99089   5.05154
 Alpha virt. eigenvalues --    5.05798   5.09273   5.10107   5.11454   5.12510
 Alpha virt. eigenvalues --    5.17570   5.18123   5.18615   5.21481   5.21546
 Alpha virt. eigenvalues --    5.23970   5.29574   5.32391   5.32930   5.34370
 Alpha virt. eigenvalues --    5.36264   5.36524   5.41461   5.42520   5.49280
 Alpha virt. eigenvalues --    5.49964   5.52591   5.54503   5.56975   5.65803
 Alpha virt. eigenvalues --    5.66873   5.70093   5.73893   5.76026   6.05570
 Alpha virt. eigenvalues --   22.15292  22.28858  22.43518  22.54234  22.62805
 Alpha virt. eigenvalues --   22.66532  22.68467  22.71336  22.71351  22.72521
 Alpha virt. eigenvalues --   22.73857  22.77321  22.78249  22.83795  22.84010
 Alpha virt. eigenvalues --   22.86905  22.91193  22.91736  22.93112  22.95960
 Alpha virt. eigenvalues --   23.02292  23.16078  23.16823  23.17036  23.25388
 Alpha virt. eigenvalues --   23.40595  23.40623  23.78179  23.95654
          Condensed to atoms (all electrons):
 Mulliken charges:
               1
     1  C    0.101216
     2  C   -0.216507
     3  C   -0.153266
     4  C   -0.145992
     5  C   -0.153745
     6  C   -0.211689
     7  H    0.144394
     8  H    0.144116
     9  H    0.164967
    10  H    0.163217
    11  H    0.141466
    12  C   -0.248437
    13  C   -0.191505
    14  C    0.117635
    15  C   -0.285133
    16  H    0.140956
    17  H    0.159755
    18  H    0.202742
    19  C    0.096446
    20  C    0.004603
    21  C    0.004607
    22  C    0.096513
    23  C   -0.248477
    24  C   -0.191485
    25  C    0.117581
    26  C   -0.285114
    27  H    0.140947
    28  H    0.159767
    29  H    0.202742
    30  C   -0.254373
    31  C   -0.323031
    32  C   -0.011692
    33  C   -0.323000
    34  C   -0.254372
    35  H    0.164707
    36  H    0.164538
    37  H    0.164712
    38  H    0.164520
    39  H    0.137620
    40  H    0.141132
    41  H    0.137604
    42  H    0.141133
    43  C   -0.145980
    44  C   -0.153721
    45  C   -0.211705
    46  C    0.101216
    47  C   -0.216465
    48  C   -0.153306
    49  H    0.141466
    50  H    0.144115
    51  H    0.163203
    52  H    0.164960
    53  H    0.144398
 Sum of Mulliken charges =  -0.00000
 Mulliken charges with hydrogens summed into heavy atoms:
               1
     1  C    0.101216
     2  C   -0.051539
     3  C   -0.008872
     4  C   -0.004526
     5  C   -0.009629
     6  C   -0.048472
    12  C   -0.107481
    13  C   -0.031750
    14  C    0.117635
    15  C   -0.082390
    19  C    0.096446
    20  C    0.004603
    21  C    0.004607
    22  C    0.096513
    23  C   -0.107530
    24  C   -0.031717
    25  C    0.117581
    26  C   -0.082372
    30  C    0.024378
    31  C    0.006214
    32  C   -0.011692
    33  C    0.006232
    34  C    0.024365
    43  C   -0.004514
    44  C   -0.009606
    45  C   -0.048502
    46  C    0.101216
    47  C   -0.051505
    48  C   -0.008907
 Electronic spatial extent (au):  <R**2>=          16385.7174
 Charge=             -0.0000 electrons
 Dipole moment (field-independent basis, Debye):
    X=             -0.0002    Y=              0.7579    Z=             -0.0000  Tot=              0.7579
 Quadrupole moment (field-independent basis, Debye-Ang):
   XX=           -153.9539   YY=           -157.1129   ZZ=           -175.2649
   XY=             -0.0020   XZ=             -1.4907   YZ=              0.0000
 Traceless Quadrupole moment (field-independent basis, Debye-Ang):
   XX=              8.1567   YY=              4.9977   ZZ=            -13.1543
   XY=             -0.0020   XZ=             -1.4907   YZ=              0.0000
 Octapole moment (field-independent basis, Debye-Ang**2):
  XXX=             -0.0041  YYY=            -16.5577  ZZZ=             -0.0000  XYY=             -0.0080
  XXY=              7.5864  XXZ=              0.0016  XZZ=              0.0014  YZZ=             11.7794
  YYZ=             -0.0022  XYZ=             51.3730
 Hexadecapole moment (field-independent basis, Debye-Ang**3):
 XXXX=         -17853.5840 YYYY=          -2642.2521 ZZZZ=           -616.8997 XXXY=             -0.1213
 XXXZ=           -199.9880 YYYX=             -0.0250 YYYZ=             -0.0021 ZZZX=             -5.8895
 ZZZY=             -0.0021 XXYY=          -3638.5283 XXZZ=          -3539.4227 YYZZ=           -558.7364
 XXYZ=             -0.0013 YYXZ=             -5.6172 ZZXY=              0.0031
 N-N= 2.415754459100D+03 E-N=-7.426527335810D+03  KE= 1.113545481262D+03
 ******************************Gaussian NBO Version 3.1******************************
             N A T U R A L   A T O M I C   O R B I T A L   A N D
          N A T U R A L   B O N D   O R B I T A L   A N A L Y S I S
 ******************************Gaussian NBO Version 3.1******************************
       /RESON  / : Allow strongly delocalized NBO set

 Analyzing the SCF density

 Job title: Structure697                                                    

 Storage needed:   3273070 in NPA,   4357365 in NBO (1048561425 available)
 GSVD:  LWork=      474025 too small for GESVD, short by      748655 words or      748655 for optimal perf.


 NATURAL POPULATIONS:  Natural atomic orbital occupancies 
                                                          
   NAO  Atom  No  lang   Type(AO)    Occupancy      Energy
 ----------------------------------------------------------
     1    C    1  S      Cor( 1S)     1.99911     -10.39177
     2    C    1  S      Val( 2S)     0.91048      -0.20116
     3    C    1  S      Ryd( 4S)     0.00076       1.64165
     4    C    1  S      Ryd( 3S)     0.00003       1.52083
     5    C    1  S      Ryd( 5S)     0.00000      21.46212
     6    C    1  px     Val( 2p)     1.04218      -0.05652
     7    C    1  px     Ryd( 3p)     0.00628       1.23960
     8    C    1  px     Ryd( 4p)     0.00053       1.87209
     9    C    1  py     Val( 2p)     1.04679      -0.08379
    10    C    1  py     Ryd( 3p)     0.00420       1.05510
    11    C    1  py     Ryd( 4p)     0.00032       1.47316
    12    C    1  pz     Val( 2p)     1.02969      -0.09575
    13    C    1  pz     Ryd( 3p)     0.00164       0.89360
    14    C    1  pz     Ryd( 4p)     0.00027       1.40199
    15    C    1  dxy    Ryd( 3d)     0.00113       2.04396
    16    C    1  dxy    Ryd( 4d)     0.00038       3.47523
    17    C    1  dxz    Ryd( 3d)     0.00067       1.60594
    18    C    1  dxz    Ryd( 4d)     0.00031       3.41055
    19    C    1  dyz    Ryd( 3d)     0.00055       1.84691
    20    C    1  dyz    Ryd( 4d)     0.00024       3.43426
    21    C    1  dx2y2  Ryd( 3d)     0.00100       2.17761
    22    C    1  dx2y2  Ryd( 4d)     0.00050       3.52865
    23    C    1  dz2    Ryd( 3d)     0.00028       1.51012
    24    C    1  dz2    Ryd( 4d)     0.00040       3.52881
    25    C    1  f(0)   Ryd( 4f)     0.00005       3.68306
    26    C    1  f(C1)  Ryd( 4f)     0.00005       3.77940
    27    C    1  f(S1)  Ryd( 4f)     0.00009       3.55919
    28    C    1  f(C2)  Ryd( 4f)     0.00008       3.82834
    29    C    1  f(S2)  Ryd( 4f)     0.00007       3.96092
    30    C    1  f(C3)  Ryd( 4f)     0.00008       4.05831
    31    C    1  f(S3)  Ryd( 4f)     0.00004       4.07326
 
    32    C    2  S      Cor( 1S)     1.99916     -10.38153
    33    C    2  S      Val( 2S)     0.96964      -0.22723
    34    C    2  S      Ryd( 3S)     0.00086       1.46852
    35    C    2  S      Ryd( 4S)     0.00006       1.78195
    36    C    2  S      Ryd( 5S)     0.00001      20.94853
    37    C    2  px     Val( 2p)     1.06141      -0.06591
    38    C    2  px     Ryd( 3p)     0.00291       1.12817
    39    C    2  px     Ryd( 4p)     0.00019       2.47016
    40    C    2  py     Val( 2p)     1.09658      -0.08649
    41    C    2  py     Ryd( 3p)     0.00340       0.97093
    42    C    2  py     Ryd( 4p)     0.00028       2.14373
    43    C    2  pz     Val( 2p)     1.05233      -0.09591
    44    C    2  pz     Ryd( 3p)     0.00232       0.83788
    45    C    2  pz     Ryd( 4p)     0.00031       1.91297
    46    C    2  dxy    Ryd( 3d)     0.00146       1.58703
    47    C    2  dxy    Ryd( 4d)     0.00048       3.30684
    48    C    2  dxz    Ryd( 3d)     0.00095       1.55763
    49    C    2  dxz    Ryd( 4d)     0.00037       3.25980
    50    C    2  dyz    Ryd( 3d)     0.00082       1.65050
    51    C    2  dyz    Ryd( 4d)     0.00023       3.32667
    52    C    2  dx2y2  Ryd( 3d)     0.00101       1.78305
    53    C    2  dx2y2  Ryd( 4d)     0.00037       3.43150
    54    C    2  dz2    Ryd( 3d)     0.00062       1.46419
    55    C    2  dz2    Ryd( 4d)     0.00010       3.09121
    56    C    2  f(0)   Ryd( 4f)     0.00017       3.56646
    57    C    2  f(C1)  Ryd( 4f)     0.00011       3.62336
    58    C    2  f(S1)  Ryd( 4f)     0.00019       3.35847
    59    C    2  f(C2)  Ryd( 4f)     0.00017       3.67395
    60    C    2  f(S2)  Ryd( 4f)     0.00010       3.78982
    61    C    2  f(C3)  Ryd( 4f)     0.00007       3.90242
    62    C    2  f(S3)  Ryd( 4f)     0.00009       3.83888
 
    63    C    3  S      Cor( 1S)     1.99924     -10.38250
    64    C    3  S      Val( 2S)     0.97565      -0.23429
    65    C    3  S      Ryd( 3S)     0.00084       1.20444
    66    C    3  S      Ryd( 4S)     0.00006       1.25337
    67    C    3  S      Ryd( 5S)     0.00000      21.64842
    68    C    3  px     Val( 2p)     1.09349      -0.06634
    69    C    3  px     Ryd( 3p)     0.00395       1.07887
    70    C    3  px     Ryd( 4p)     0.00026       2.14270
    71    C    3  py     Val( 2p)     1.06833      -0.08567
    72    C    3  py     Ryd( 3p)     0.00320       0.96717
    73    C    3  py     Ryd( 4p)     0.00023       1.87198
    74    C    3  pz     Val( 2p)     1.04983      -0.09822
    75    C    3  pz     Ryd( 3p)     0.00258       0.88416
    76    C    3  pz     Ryd( 4p)     0.00027       1.65239
    77    C    3  dxy    Ryd( 3d)     0.00080       1.73224
    78    C    3  dxy    Ryd( 4d)     0.00053       3.38575
    79    C    3  dxz    Ryd( 3d)     0.00054       1.58566
    80    C    3  dxz    Ryd( 4d)     0.00042       3.19833
    81    C    3  dyz    Ryd( 3d)     0.00106       1.58283
    82    C    3  dyz    Ryd( 4d)     0.00021       3.30165
    83    C    3  dx2y2  Ryd( 3d)     0.00148       1.59051
    84    C    3  dx2y2  Ryd( 4d)     0.00037       3.28802
    85    C    3  dz2    Ryd( 3d)     0.00050       1.41416
    86    C    3  dz2    Ryd( 4d)     0.00014       3.04793
    87    C    3  f(0)   Ryd( 4f)     0.00016       3.50664
    88    C    3  f(C1)  Ryd( 4f)     0.00006       3.54192
    89    C    3  f(S1)  Ryd( 4f)     0.00016       3.40936
    90    C    3  f(C2)  Ryd( 4f)     0.00011       3.67395
    91    C    3  f(S2)  Ryd( 4f)     0.00013       3.75284
    92    C    3  f(C3)  Ryd( 4f)     0.00007       3.86954
    93    C    3  f(S3)  Ryd( 4f)     0.00006       3.79773
 
    94    C    4  S      Cor( 1S)     1.99924     -10.38099
    95    C    4  S      Val( 2S)     0.97621      -0.23459
    96    C    4  S      Ryd( 3S)     0.00084       1.23449
    97    C    4  S      Ryd( 4S)     0.00005       1.33346
    98    C    4  S      Ryd( 5S)     0.00000      21.57798
    99    C    4  px     Val( 2p)     1.16447      -0.07127
   100    C    4  px     Ryd( 3p)     0.00451       1.17992
   101    C    4  px     Ryd( 4p)     0.00017       2.09426
   102    C    4  py     Val( 2p)     1.03685      -0.08252
   103    C    4  py     Ryd( 3p)     0.00299       0.89581
   104    C    4  py     Ryd( 4p)     0.00035       1.93148
   105    C    4  pz     Val( 2p)     1.01829      -0.09567
   106    C    4  pz     Ryd( 3p)     0.00244       0.80758
   107    C    4  pz     Ryd( 4p)     0.00037       1.69836
   108    C    4  dxy    Ryd( 3d)     0.00121       1.63119
   109    C    4  dxy    Ryd( 4d)     0.00040       3.15134
   110    C    4  dxz    Ryd( 3d)     0.00092       1.50898
   111    C    4  dxz    Ryd( 4d)     0.00024       3.00970
   112    C    4  dyz    Ryd( 3d)     0.00091       1.73257
   113    C    4  dyz    Ryd( 4d)     0.00013       3.41104
   114    C    4  dx2y2  Ryd( 3d)     0.00079       1.79339
   115    C    4  dx2y2  Ryd( 4d)     0.00058       3.29889
   116    C    4  dz2    Ryd( 3d)     0.00025       1.55198
   117    C    4  dz2    Ryd( 4d)     0.00029       3.04106
   118    C    4  f(0)   Ryd( 4f)     0.00008       3.51456
   119    C    4  f(C1)  Ryd( 4f)     0.00007       3.54993
   120    C    4  f(S1)  Ryd( 4f)     0.00017       3.50170
   121    C    4  f(C2)  Ryd( 4f)     0.00014       3.61321
   122    C    4  f(S2)  Ryd( 4f)     0.00019       3.82572
   123    C    4  f(C3)  Ryd( 4f)     0.00005       3.79268
   124    C    4  f(S3)  Ryd( 4f)     0.00004       3.70941
 
   125    C    5  S      Cor( 1S)     1.99924     -10.38260
   126    C    5  S      Val( 2S)     0.97554      -0.23428
   127    C    5  S      Ryd( 3S)     0.00083       1.21508
   128    C    5  S      Ryd( 4S)     0.00005       1.25428
   129    C    5  S      Ryd( 5S)     0.00000      21.65313
   130    C    5  px     Val( 2p)     1.06135      -0.06428
   131    C    5  px     Ryd( 3p)     0.00373       1.02296
   132    C    5  px     Ryd( 4p)     0.00027       2.20561
   133    C    5  py     Val( 2p)     1.10015      -0.08793
   134    C    5  py     Ryd( 3p)     0.00340       1.01420
   135    C    5  py     Ryd( 4p)     0.00022       1.80972
   136    C    5  pz     Val( 2p)     1.05049      -0.09840
   137    C    5  pz     Ryd( 3p)     0.00258       0.88036
   138    C    5  pz     Ryd( 4p)     0.00027       1.66061
   139    C    5  dxy    Ryd( 3d)     0.00109       1.65852
   140    C    5  dxy    Ryd( 4d)     0.00045       3.28910
   141    C    5  dxz    Ryd( 3d)     0.00067       1.58709
   142    C    5  dxz    Ryd( 4d)     0.00036       3.20363
   143    C    5  dyz    Ryd( 3d)     0.00093       1.60144
   144    C    5  dyz    Ryd( 4d)     0.00028       3.27703
   145    C    5  dx2y2  Ryd( 3d)     0.00118       1.68524
   146    C    5  dx2y2  Ryd( 4d)     0.00044       3.36923
   147    C    5  dz2    Ryd( 3d)     0.00050       1.42502
   148    C    5  dz2    Ryd( 4d)     0.00013       3.03665
   149    C    5  f(0)   Ryd( 4f)     0.00016       3.50613
   150    C    5  f(C1)  Ryd( 4f)     0.00008       3.61681
   151    C    5  f(S1)  Ryd( 4f)     0.00013       3.33380
   152    C    5  f(C2)  Ryd( 4f)     0.00015       3.65199
   153    C    5  f(S2)  Ryd( 4f)     0.00010       3.77589
   154    C    5  f(C3)  Ryd( 4f)     0.00006       3.87155
   155    C    5  f(S3)  Ryd( 4f)     0.00008       3.79900
 
   156    C    6  S      Cor( 1S)     1.99916     -10.38177
   157    C    6  S      Val( 2S)     0.96944      -0.22746
   158    C    6  S      Ryd( 3S)     0.00089       1.49268
   159    C    6  S      Ryd( 4S)     0.00006       1.63432
   160    C    6  S      Ryd( 5S)     0.00001      21.07324
   161    C    6  px     Val( 2p)     1.09709      -0.06971
   162    C    6  px     Ryd( 3p)     0.00324       1.20017
   163    C    6  px     Ryd( 4p)     0.00014       2.34030
   164    C    6  py     Val( 2p)     1.06158      -0.08332
   165    C    6  py     Ryd( 3p)     0.00292       0.92278
   166    C    6  py     Ryd( 4p)     0.00027       2.25504
   167    C    6  pz     Val( 2p)     1.05264      -0.09618
   168    C    6  pz     Ryd( 3p)     0.00233       0.84374
   169    C    6  pz     Ryd( 4p)     0.00033       1.89495
   170    C    6  dxy    Ryd( 3d)     0.00094       1.76153
   171    C    6  dxy    Ryd( 4d)     0.00052       3.42170
   172    C    6  dxz    Ryd( 3d)     0.00066       1.61092
   173    C    6  dxz    Ryd( 4d)     0.00042       3.24187
   174    C    6  dyz    Ryd( 3d)     0.00110       1.60060
   175    C    6  dyz    Ryd( 4d)     0.00016       3.35411
   176    C    6  dx2y2  Ryd( 3d)     0.00158       1.60669
   177    C    6  dx2y2  Ryd( 4d)     0.00031       3.31885
   178    C    6  dz2    Ryd( 3d)     0.00063       1.46566
   179    C    6  dz2    Ryd( 4d)     0.00010       3.09039
   180    C    6  f(0)   Ryd( 4f)     0.00017       3.56667
   181    C    6  f(C1)  Ryd( 4f)     0.00006       3.55476
   182    C    6  f(S1)  Ryd( 4f)     0.00023       3.42778
   183    C    6  f(C2)  Ryd( 4f)     0.00012       3.66437
   184    C    6  f(S2)  Ryd( 4f)     0.00014       3.80822
   185    C    6  f(C3)  Ryd( 4f)     0.00011       3.89217
   186    C    6  f(S3)  Ryd( 4f)     0.00006       3.84082
 
   187    H    7  S      Val( 1S)     0.78489       0.05117
   188    H    7  S      Ryd( 2S)     0.00031       1.10837
   189    H    7  S      Ryd( 3S)     0.00019       1.66740
   190    H    7  px     Ryd( 2p)     0.00019       2.88050
   191    H    7  py     Ryd( 2p)     0.00017       2.64106
   192    H    7  pz     Ryd( 2p)     0.00016       2.48617
 
   193    H    8  S      Val( 1S)     0.78512       0.05090
   194    H    8  S      Ryd( 2S)     0.00032       1.10085
   195    H    8  S      Ryd( 3S)     0.00019       1.67992
   196    H    8  px     Ryd( 2p)     0.00009       2.81227
[...]
 0579,-0.00000195,0.00000357,0.00000143,0.00000187,-0.00000186,-0.00000
 061,0.00000481,0.00000164,-0.00000224,-0.00001584,0.00000201,-0.000002
 80,0.00003707,-0.00001326,-0.00002119,0.00001582,-0.00003156,0.0000331
 2,-0.00001178,0.00001126,0.00000776,0.00003773,-0.00005384,0.00002337,
 0.00016108,-0.00009516,-0.00020062,-0.00050021,-0.00036027,-0.00007715
 ,0.00003927,-0.00003170,-0.00008590,0.00001723,-0.00001908,-0.00000351
 ,0.00000370,0.00001528,-0.00002927,0.00001748,-0.00004292,-0.00003818,
 0.00000208,-0.00000287,0.00000944,-0.00000200,-0.00000485,-0.00001592,
 -0.00000975,-0.00000103,0.00000306,0.00000251,-0.00001237,0.00001002,0
 .00001434,-0.00000722,-0.00002210,0.00000061,0.00000358,0.00000009,-0.
 00000609,-0.00000539,0.00000216,-0.00000074,-0.00000410,0.00000450,0.0
 0000333,0.00000884,-0.00000317,-0.00000342,0.00000402,-0.00000134,0.00
 000958,0.00000599,0.00000165,-0.00000931,-0.00000443,0.00000918,0.0000
 0422,0.00000670,-0.00000441,0.00060803,-0.00248716,0.00130436,-0.05004
 625,-0.13455906,-0.14145785,-0.00587088,-0.01009543,-0.00454996,0.0023
 9266,-0.00416787,0.00446092,0.00031303,0.00069406,-0.00019647,-0.00064
 065,-0.00290788,0.00514389,-0.00021283,0.00218187,-0.00224583,0.053391
 99,0.14912870,0.14102192,-0.00000128,0.00000080,0.00000085,-0.00000064
 ,0.00000152,-0.00000076,0.00000050,0.00000042,-0.00000079,0.00000002,0
 .00000006,0.00000041,-0.00000125,0.00000091,0.00000040,0.00000209,-0.0
 0000066,-0.00000059,0.00000043,-0.00000087,0.00000009,-0.00000021,-0.0
 0000042,0.00000034,-0.00000032,-0.00000078,0.00000097,-0.00000006,0.,-
 0.00000038,0.00000003,-0.00000015,-0.00000024,-0.00000860,-0.00000395,
 0.00000610,0.00000403,0.00000788,0.00000191,0.00000165,-0.00000622,-0.
 00000217,-0.00000539,0.00000362,0.00000633,-0.00000055,0.00000046,-0.0
 0000210,-0.00000087,-0.00000004,0.00000063,0.00000105,0.00000030,-0.00
 000044,-0.00000077,0.00003579,-0.00001611,0.00000634,-0.00000760,-0.00
 001196,0.00030381,0.00011983,-0.00003177,0.00001950,0.00015662,-0.0000
 9288,-0.00018671,0.00005039,0.00011475,0.00027169,-0.00047273,-0.00006
 924,-0.00016743,0.00086387,0.00073284,-0.00019631,-0.00001917,0.000801
 63,-0.00000027,-0.00001124,-0.00003582,0.00000538,0.00004906,-0.000000
 77,0.00010166,0.00065461,0.00059394,0.00000711,-0.00001175,-0.00000082
 ,-0.00002985,0.00002502,0.00006258,0.00006001,-0.00003622,0.00003074,-
 0.00001655,-0.00000618,0.00000244,0.00001225,-0.00000336,-0.00000750,0
 .00000510,-0.00000360,-0.00001535,0.00004675,-0.00002136,-0.00005230,-
 0.00000163,-0.00000311,-0.00001029,-0.00000450,0.00000071,0.00000459,-
 0.00000235,0.00000918,-0.00000719,-0.00000211,-0.00000018,0.00000162,0
 .00000955,0.00000121,-0.00000100,-0.00000414,-0.00000040,-0.00000132,-
 0.00068833,0.00326804,0.00240173,-0.01601859,-0.00566505,-0.00444376,-
 0.32614907,-0.04638787,-0.04282968,-0.00652140,-0.00045044,-0.00041286
 ,0.00141819,-0.00138357,-0.00103188,0.00064248,0.00026869,0.00015494,-
 0.00085418,-0.00029432,-0.00026752,0.00083517,0.00014077,0.00020939,0.
 34752553,0.00001848,-0.00000443,-0.00001154,-0.00001195,0.00000415,0.0
 0000369,0.00000342,-0.00000058,0.00000013,-0.00000716,0.00000116,0.000
 00501,-0.00000327,0.00000178,-0.00000286,-0.00000605,0.00000362,0.0000
 0374,-0.00000043,-0.00000003,0.00000066,-0.00000207,-0.00000114,0.0000
 0326,0.00000165,-0.00000424,0.00000227,0.00000214,0.00000190,-0.000002
 48,-0.00000120,0.00000031,0.00000057,-0.00001244,-0.00001457,0.0000083
 6,-0.00001352,-0.00000656,0.00001186,-0.00000595,0.00001559,0.00000514
 ,0.00001658,0.00000399,0.00000252,0.00000029,-0.00000409,-0.00000676,-
 0.00000278,0.00000291,0.00000273,-0.00000504,-0.00000230,0.00000032,0.
 00002245,0.00001522,-0.00005754,-0.00003553,0.00000944,0.00002935,0.00
 048670,-0.00056139,-0.00011288,0.00030185,0.00042539,-0.00011852,-0.00
 054244,0.00008150,0.00020075,0.00029805,-0.00082624,-0.00028249,-0.001
 42845,0.00000127,0.00285768,0.00011486,0.00035401,0.00015526,0.0000098
 7,-0.00000689,0.00000392,0.00001830,0.00005208,-0.00001765,-0.00005597
 ,0.00024295,-0.00049212,-0.00000809,0.00002492,-0.00000583,0.00001837,
 -0.00001643,0.00000140,-0.00001126,-0.00003312,-0.00001877,-0.00001072
 ,0.00002795,-0.00002788,-0.00003832,0.00001697,0.00004507,0.00000105,-
 0.00000934,-0.00000100,0.00001555,0.00005045,-0.00000121,0.00000093,0.
 00000624,-0.00000647,-0.00000983,-0.00001942,0.00001125,0.00000285,-0.
 00001656,0.00000932,-0.00001656,-0.00001094,-0.00000068,0.00001891,0.0
 0000160,-0.00000856,-0.00000141,-0.00001672,0.00000509,0.00274047,0.00
 115644,-0.00505681,0.01839111,0.00715082,0.00318662,-0.04509129,-0.058
 93119,-0.01676998,-0.02284753,-0.00025390,-0.00371035,-0.00109331,-0.0
 0123977,-0.00576462,0.00045797,-0.00119889,-0.00043114,0.00092221,0.00
 022539,0.00006875,-0.00043218,-0.00099275,0.00245659,0.04915880,0.0547
 1074,0.00002252,-0.00000065,-0.00001088,-0.00000825,-0.00000341,0.0000
 0688,-0.00000041,-0.00000189,0.00000395,-0.00000561,0.00000231,0.00000
 222,0.00000412,0.00000102,-0.00000359,-0.00000963,0.00000233,0.0000103
 0,-0.00000385,0.00000436,-0.00000057,-0.00000060,-0.00000077,-0.000000
 37,0.00000401,-0.00000062,-0.00000262,0.00000094,0.00000033,-0.0000053
 6,-0.00000254,0.00000073,0.00000143,-0.00002145,0.00000543,0.00001271,
 -0.00000813,0.00001223,-0.00000169,0.00000349,-0.00000261,-0.00000165,
 -0.00001129,0.00002614,-0.00000405,0.00000591,0.00000036,0.00000135,-0
 .00000385,0.00000670,0.00000218,0.00000345,-0.00000576,-0.00000058,0.0
 0004856,0.00004504,0.00000840,-0.00000960,-0.00005885,-0.00000550,0.00
 024069,0.00047779,-0.00003070,-0.00012968,-0.00013638,0.00003730,0.000
 27397,0.00015422,-0.00003418,-0.00013976,0.00045461,0.00036243,0.00016
 426,0.00187656,-0.00213144,-0.00004465,-0.00116539,-0.00039786,-0.0000
 1830,0.00002214,-0.00000745,-0.00002563,0.00011334,-0.00005272,0.00071
 612,-0.00022965,-0.00137847,-0.00000560,0.00001057,0.00001421,-0.00000
 101,-0.00000644,-0.00004187,0.00003607,-0.00002266,-0.00004798,-0.0000
 1385,0.00000275,-0.00000137,0.00006178,-0.00005593,-0.00004537,-0.0000
 3094,0.00001881,0.00002107,0.00004481,-0.00000944,0.00005081,-0.000002
 77,-0.00000600,-0.00002442,-0.00001141,0.00000621,0.00001334,-0.000018
 72,0.00000532,0.00000608,0.00000366,-0.00001208,-0.00000408,-0.0000135
 3,0.00004773,0.00000906,-0.00002211,0.00001096,0.00001782,0.00189487,-
 0.00530188,0.00348678,0.01472251,0.00272098,0.00562436,-0.04285286,-0.
 01760515,-0.05204845,-0.01809051,-0.00183424,0.00230329,-0.00049099,-0
 .00577042,0.00182722,0.00017522,-0.00014065,-0.00075277,0.00071899,0.0
 0007535,0.00016581,-0.00033777,0.00241984,-0.00228749,0.04416908,0.023
 42410,0.04591609,-0.00002912,0.00000701,0.00001688,0.00001498,-0.00000
 163,-0.00000788,-0.00000262,0.00000175,-0.00000252,0.00000881,-0.00000
 250,-0.00000650,0.00000130,-0.00000155,0.00000500,0.00001174,-0.000004
 87,-0.00000880,0.00000249,-0.00000257,-0.00000032,0.00000193,0.0000010
 9,-0.00000254,-0.00000373,0.00000398,-0.00000012,-0.00000263,-0.000002
 09,0.00000404,0.00000268,-0.00000045,-0.00000109,0.00000070,0.00001200
 ,0.00000191,0.00003644,0.00001695,-0.00001246,0.00000268,-0.00003891,-
 0.00000662,-0.00002575,0.00001331,0.00001730,-0.00000696,0.00000864,0.
 00000211,0.00000434,-0.00000562,-0.00000354,0.00000591,0.00000457,-0.0
 0000399,-0.00006156,0.00005188,0.00000576,0.00008474,0.00000471,-0.000
 03653,0.00014817,-0.00035458,-0.00014513,0.00023493,0.00033706,-0.0000
 9965,-0.00018433,0.00034988,0.00037465,-0.00039799,-0.00015870,0.00018
 039,0.00151714,-0.00090122,-0.00062941,-0.00032442,0.00002978,0.000317
 76,-0.00003027,-0.00000104,-0.00001979,-0.00054536,0.00094873,-0.00051
 745,0.00006232,0.00006103,-0.00008569,0.00000635,0.00000295,0.00001924
 ,0.00001178,-0.00001346,-0.00004966,-0.00004678,0.00002650,0.00001454,
 0.00002155,-0.00002120,0.00000193,0.00000871,-0.00001063,-0.00002029,0
 .00000597,0.00000258,0.00000469,-0.00000699,-0.00000306,-0.00000024,0.
 00000097,-0.00000795,0.00001298,0.00000786,0.00001572,-0.00001146,-0.0
 0000071,-0.00000050,-0.00000260,0.00001043,0.00001273,0.00000073,-0.00
 000650,-0.00000070,0.00000433,0.00000460,0.00001138,-0.00000121,-0.002
 40593,0.00281517,0.00201679,-0.00121928,0.00048831,0.00036412,-0.00584
 524,-0.00042086,-0.00036608,-0.00443216,-0.02305942,-0.01816242,-0.084
 75429,-0.06371235,-0.05004890,0.01057988,0.01691621,0.01324709,0.00033
 028,0.00086367,0.00064095,0.00012037,-0.00004610,-0.00003332,-0.000337
 40,-0.00129016,-0.00096028,0.08655932,0.00000249,0.00000088,-0.0000033
 9,0.00000022,-0.00000117,-0.00000049,0.00000055,-0.00000004,0.00000226
 ,-0.00000152,-0.00000002,-0.00000170,0.00000422,-0.00000025,0.00000174
 ,-0.00000302,0.00000173,0.00000191,-0.00000105,0.00000069,-0.00000080,
 -0.00000094,-0.00000046,-0.00000086,0.00000010,0.00000024,-0.00000101,
 -0.00000056,-0.00000135,-0.00000171,0.00000017,0.00000016,0.00000026,-
 0.00000876,0.00001249,0.00000551,0.00001373,0.00000333,0.00000174,-0.0
 0000291,-0.00001262,-0.00000030,-0.00000529,0.00000959,0.00001780,-0.0
 0000182,-0.00000192,-0.00000654,-0.00000069,0.00000167,-0.00000134,-0.
 00000137,-0.00000020,-0.00000088,-0.00002492,0.00000094,-0.00003567,0.
 00001003,-0.00000707,0.00000153,0.00006991,-0.00047126,-0.00017480,0.0
 0020800,0.00030044,-0.00013646,-0.00028205,0.00011572,0.00031258,0.001
 09917,-0.00030818,0.00010380,0.00126983,-0.00198744,0.00131311,-0.0008
 5029,0.00021077,0.00047441,0.00003554,-0.00001418,0.00004877,0.0011475
 0,-0.00059563,0.00005284,0.00001214,0.00000373,0.00003171,-0.00000301,
 0.00000452,-0.00000343,0.00000577,-0.00000039,0.00000299,-0.00003190,0
 .00000807,-0.00001031,-0.00001942,0.00000945,-0.00001203,0.00000520,-0
 .00000964,0.00000460,-0.00000280,-0.00000103,0.00000180,0.00000276,0.0
 0000363,0.00000433,0.00000115,0.00000089,-0.00000178,-0.00000090,-0.00
 000135,0.00000499,-0.00000063,-0.00000164,0.00000289,0.00000244,-0.000
 00077,0.00000229,-0.00000202,0.00000349,-0.00000331,-0.00000360,-0.000
 00068,0.00000117,0.00351349,0.00211059,-0.00431197,0.00020566,0.000213
 83,0.00062287,-0.00088329,0.00316685,-0.00233742,-0.00146815,-0.000852
 44,-0.00369425,-0.06402697,-0.20668049,-0.13452937,-0.00726058,-0.0097
 0905,-0.01006427,-0.00038352,-0.00051542,-0.00050853,-0.00002727,-0.00
 048845,0.00052929,-0.00000938,-0.00006381,-0.00020153,0.06751029,0.216
 57472,0.00000646,0.00000085,0.00000079,-0.00000444,-0.00000074,-0.0000
 0299,0.00000325,0.00000136,0.00000153,-0.00000546,0.00000013,-0.000002
 58,0.00000242,0.00000042,0.00000220,-0.00000086,-0.00000029,-0.0000002
 2,-0.00000077,-0.00000033,0.00000014,-0.00000088,-0.00000089,0.0000002
 2,-0.00000034,-0.00000057,0.00000190,-0.00000045,0.00000009,-0.0000007
 4,0.00000169,0.00000034,0.00000048,0.00000263,-0.00001365,-0.00000283,
 -0.00001462,0.00000006,0.00000059,0.00000050,0.00001080,0.00000113,0.0
 0000360,0.00000048,-0.00001615,0.00000007,0.00000264,0.00000504,0.0000
 0029,0.00000003,0.00000231,0.00000302,0.00000008,-0.00000015,0.0000319
 0,0.00003431,-0.00000057,0.00000641,-0.00000686,0.00000834,0.00002775,
 0.00030122,0.00014851,-0.00015003,-0.00022728,0.00000468,0.00050455,0.
 00021682,-0.00030330,-0.00067547,-0.00052467,0.00044349,-0.00004020,0.
 00237096,-0.00181065,0.00053501,-0.00011775,-0.00006715,-0.00001748,0.
 00001323,0.00005865,0.00001593,0.00055005,0.00011046,0.00004008,0.0000
 1733,-0.00006433,0.00000133,-0.00000439,0.00000472,-0.00000138,0.00000
 099,-0.00001683,-0.00001433,0.00003552,-0.00002604,0.00003088,-0.00001
 215,0.00000312,0.00000294,0.00000008,-0.00001143,0.00000143,0.00000172
 ,0.00000196,-0.00000130,-0.00000410,-0.00000111,0.00000042,-0.00000154
 ,-0.00000075,0.00000279,0.00000797,-0.00000794,0.00000011,0.00000148,-
 0.00000211,0.00000261,0.00000363,-0.00000005,-0.00000137,0.00000034,0.
 00000424,0.00000154,0.00000500,-0.00000057,0.00222800,-0.00437593,0.00
 423905,0.00050575,0.00050588,-0.00030512,-0.00069380,-0.00210643,0.004
 72454,0.00061308,-0.00429800,0.00071711,-0.05136869,-0.13518716,-0.145
 71011,-0.00574980,-0.00946318,-0.00397902,-0.00030187,-0.00047046,-0.0
 0026528,-0.00002771,0.00054257,-0.00076850,0.00006450,-0.00023174,0.00
 011933,0.05429696,0.15003335,0.14503459,0.00002407,-0.00000276,-0.0000
 1114,-0.00001251,0.00000057,0.00000284,0.00000436,-0.00000020,0.000003
 62,-0.00001033,0.00000150,0.00000180,0.00000245,0.00000169,-0.00000044
 ,-0.00000934,0.00000428,0.00000608,-0.00000246,0.00000141,-0.00000006,
 -0.00000262,-0.00000174,0.00000139,0.00000184,-0.00000337,0.00000115,0
 .00000104,0.00000056,-0.00000412,-0.00000039,0.00000055,0.00000102,-0.
 00000570,-0.00001650,0.00000247,-0.00002587,-0.00000692,0.00001086,-0.
 00000360,0.00002287,0.00000444,0.00001262,0.00000428,-0.00000922,0.000
 00225,-0.00000206,-0.00000291,-0.00000341,0.00000455,0.00000289,-0.000
 00245,-0.00000317,0.00000071,0.00003475,0.00000203,-0.00001962,-0.0000
 4696,-0.00000713,0.00003077,-0.00003200,-0.00001993,0.00005825,-0.0000
 2097,-0.00000591,0.00000338,0.00001966,0.00001346,0.00002176,-0.000086
 90,0.00001780,0.00005940,-0.00059892,-0.00069021,-0.00036708,-0.000124
 28,0.00027224,0.00009083,-0.00001440,0.00002243,0.00000813,-0.00000491
 ,-0.00000248,-0.00001931,0.00000118,-0.00001169,-0.00002652,-0.0000048
 5,0.00000062,-0.00000681,0.00000637,0.00000324,0.00000807,0.00000991,0
 .00003104,-0.00000081,-0.00000889,0.00001093,-0.00000533,0.00000450,-0
 .00000337,0.00000322,-0.00000416,0.00000015,0.00000212,0.00000624,0.00
 000368,0.00000506,0.00000213,0.00000089,-0.00001009,-0.00000480,-0.000
 00398,0.00000606,-0.00000131,0.,0.00000335,-0.00000075,-0.00000467,0.0
 0000036,0.00000033,0.00000609,-0.00000192,-0.00000526,-0.00000391,0.00
 000367,-0.00480612,0.00041296,0.00025926,0.00153884,-0.00145021,-0.001
 17917,0.00067450,0.00043414,0.00033360,-0.00062592,0.00308670,0.002252
 04,-0.01622880,-0.00578336,-0.00455240,-0.32891838,-0.04916202,-0.0382
 3654,0.00065331,-0.00027922,-0.00016888,-0.00034774,0.00007698,0.00006
 716,-0.00007954,-0.00003796,-0.00001943,0.00086069,0.00018824,0.000133
 34,0.34818349,-0.00000345,0.00000012,0.00000192,0.00000087,0.00000136,
 -0.00000234,0.00000034,0.00000029,-0.00000097,0.00000027,-0.00000058,-
 0.00000064,-0.00000073,0.00000026,0.00000097,0.00000201,-0.00000093,-0
 .00000181,0.00000098,-0.00000098,0.00000022,-0.00000010,-0.00000006,0.
 00000034,-0.00000064,-0.00000025,0.00000146,-0.00000007,0.00000006,0.0
 0000048,0.00000068,0.00000001,-0.00000017,0.00000360,0.00000441,-0.000
 00121,0.00000416,0.00000274,-0.00000196,0.00000174,-0.00000461,-0.0000
 0173,-0.00000240,-0.00000585,0.00000486,-0.00000079,-0.00000087,0.0000
 0019,0.00000142,-0.00000138,-0.00000052,0.00000024,0.00000080,-0.00000
 092,-0.00000124,-0.00000498,0.00000439,0.00001338,0.00000375,-0.000005
 57,0.00002915,0.00003137,-0.00007130,-0.00000120,0.00000098,0.00000531
 ,-0.00000343,-0.00002032,-0.00002515,0.00000418,-0.00002313,-0.0000087
 9,0.00067306,0.00051051,0.00020752,0.00018394,-0.00020788,-0.00007685,
 0.00000913,-0.00001097,-0.00000441,0.00004236,-0.00003386,0.00001138,0
 .00000808,-0.00001353,0.00001758,-0.00000072,-0.00000108,0.00000021,-0
 .00000031,-0.00000095,-0.00000265,0.00000101,-0.00001974,-0.00001024,-
 0.00000237,-0.00000189,0.00000200,0.00000039,0.00000095,-0.00000083,0.
 00000219,-0.00000098,0.00000025,-0.00000208,-0.00000029,-0.00000057,0.
 00000086,0.00000158,0.00000163,0.00000065,0.00000101,-0.00000077,0.000
 00057,-0.00000013,-0.00000023,0.00000183,0.00000212,0.00000036,-0.0000
 0072,-0.00000135,-0.00000213,-0.00000051,-0.00000036,0.00000086,-0.024
 48637,0.00022629,-0.00232614,-0.00084481,-0.00090541,-0.00632307,0.000
 35598,-0.00109462,-0.00026570,0.00266161,0.00094842,-0.00506406,0.0189
 0123,0.00718173,0.00314045,-0.04921088,-0.06043283,-0.01725462,0.00047
 144,-0.00081462,0.00238611,-0.00121760,-0.00012760,-0.00015042,-0.0000
 1798,-0.00035350,0.00062412,-0.00045577,-0.00103143,0.00238838,0.05287
 686,0.05619820,-0.00000287,0.00000121,0.00000019,0.00000240,-0.0000028
 1,0.00000017,-0.00000094,-0.00000027,0.00000147,0.00000109,-0.00000007
 ,-0.00000195,0.00000274,-0.00000056,0.00000041,-0.00000059,-0.00000038
 ,0.00000061,-0.00000091,0.00000119,-0.00000054,0.00000061,0.00000020,-
 0.00000119,0.00000035,0.00000141,-0.00000174,-0.00000042,-0.00000048,-
 0.00000001,-0.00000010,0.00000014,0.00000036,-0.00000050,0.00000221,-0
 .00000237,0.00000566,0.00000076,-0.00000140,0.00000336,-0.00000763,-0.
 00000331,-0.00000606,0.00000303,0.00000447,-0.00000003,0.00000044,0.00
 000115,0.00000041,0.00000037,-0.00000026,0.00000128,0.00000017,0.00000
 090,-0.00002587,0.00000254,0.00000200,0.00002333,0.00000064,-0.0000100
 4,0.00001443,0.00006813,-0.00001050,0.00001694,-0.00001480,-0.00000265
 ,-0.00001292,-0.00001882,0.00002196,-0.00003108,0.00008708,-0.00007971
 ,0.00054078,0.00032543,0.00028341,0.00001444,-0.00013157,-0.00011928,0
 .00000412,-0.00000472,-0.00000057,-0.00005589,0.00000672,0.00004192,-0
 .00000290,0.00003721,-0.00000142,0.00000229,-0.00000022,0.00000289,0.0
 0000052,-0.00000051,-0.00000587,-0.00000124,-0.00001129,0.00000139,0.0
 0000661,-0.00000612,0.00000709,0.00000036,-0.00000136,-0.00000446,-0.0
 0000043,0.00000175,-0.00000061,-0.00000103,-0.00000204,-0.00000120,-0.
 00000373,-0.00000086,0.00000255,0.00000195,0.00000191,-0.00000203,-0.0
 0000064,0.00000081,0.,0.00000091,0.00000093,-0.00000070,-0.00000162,-0
 .00000136,0.00000384,0.00000294,0.00000387,-0.00000268,-0.01819069,-0.
 00186428,0.00178976,-0.00101500,-0.00615927,0.00274422,0.00038975,-0.0
 0042433,-0.00105826,0.00223530,-0.00523837,0.00386733,0.01404135,0.002
 91847,0.00556881,-0.03832183,-0.01769312,-0.05179171,0.00033163,0.0023
 8400,-0.00212972,-0.00090198,-0.00016823,-0.00001460,-0.00001533,0.000
 63449,-0.00070096,-0.00030366,0.00246361,-0.00227261,0.04125269,0.0228
 0477,0.04387549\\0.00007768,0.00001097,-0.00004460,-0.00007446,0.00005
 562,0.00002359,0.00004137,-0.00002147,-0.00001803,-0.00004756,0.000007
 01,0.00003136,0.00003054,0.00000820,-0.00002152,-0.00006144,-0.0000175
 2,0.00004557,0.00000082,0.00000946,-0.00000635,0.00000099,-0.00001073,
 0.00000593,0.00000284,-0.00000983,-0.00000508,0.00001032,0.00000289,-0
 .00000389,0.00001325,-0.00000486,-0.00000763,-0.00005163,0.00004011,0.
 00003296,0.00007938,0.00001951,-0.00005190,-0.00004514,-0.00001287,0.0
 0002852,-0.00002001,-0.00007623,0.00000759,0.00000544,-0.00000695,-0.0
 0000085,-0.00002623,-0.00001569,0.00002242,0.00001311,0.00000503,-0.00
 001051,0.00005472,-0.00005778,-0.00005821,0.00002900,0.00008666,0.0000
 1286,0.00004515,0.00007309,-0.00003154,-0.00007403,0.00001558,0.000062
 87,0.00006065,-0.00001883,-0.00003484,-0.00003304,0.00008029,0.0000404
 9,0.00001818,-0.00004646,-0.00002225,-0.00004579,-0.00006473,0.0000089
 1,-0.00000868,-0.00000026,0.00000155,0.00000366,-0.00003354,-0.0000168
 5,-0.00000367,0.00001504,0.00000815,-0.00000289,-0.00000440,0.00006164
 ,-0.00002573,-0.00000915,-0.00011377,0.,-0.00000087,0.00000168,0.00001
 940,-0.00000381,0.00011346,-0.00000657,-0.00001633,-0.00005931,0.00000
 052,0.00001390,0.00002415,-0.00000693,-0.00000261,0.00004330,0.0000081
 0,0.00000506,-0.00002591,-0.00000135,-0.00001489,-0.00004134,0.0000303
 5,-0.00000568,-0.00002292,-0.00000337,-0.00001899,-0.00001491,-0.00002
 233,0.00002329,0.00002110,-0.00001077,-0.00001197,0.00001842,0.0000348
 6,-0.00003609,-0.00002739,-0.00001341,0.00003202,0.00001697,0.00002382
 ,-0.00006575,-0.00003643,-0.00003867,0.00007322,0.00003525,0.00008817,
 -0.00002411,-0.00002657,-0.00004200,0.00001934,0.00001718,-0.00001176,
 0.00000814,0.00000722,-0.00000898,-0.00000717,-0.00000392,-0.00000433,
 0.00001034,0.00000234,-0.00000873,-0.00000326,0.00000650,0.00000714,0.
 00000804,0.00000454\\\@
 The archive entry for this job was punched.


 QED = W**5 (WHICH WAS WHAT WE WANTED)
 Job cpu time:      10 days  3 hours 49 minutes 28.7 seconds.
 Elapsed time:       0 days  8 hours 16 minutes  6.5 seconds.
 File lengths (MBytes):  RWF=   7176 Int=      0 D2E=      0 Chk=     87 Scr=      1
 Normal termination of Gaussian 16 at Sat Nov  4 00:28:08 2023.
