 Entering Gaussian System, Link 0=g16
 Input=ph_fluorene_cp_7_1_m062x.com
 Output=ph_fluorene_cp_7_1_m062x.log
 Initial command:
 /arc/software/Gaussian/g16.c01/l1.exe "/tmp/slurm/41778/Gau-212809.inp" -scrdir="/tmp/slurm/41778/"
 Entering Link 1 = /arc/software/Gaussian/g16.c01/l1.exe PID=    212810.
  
 Copyright (c) 1988-2019, Gaussian, Inc.  All Rights Reserved.
  
 This is part of the Gaussian(R) 16 program.  It is based on
 the Gaussian(R) 09 system (copyright 2009, Gaussian, Inc.),
 the Gaussian(R) 03 system (copyright 2003, Gaussian, Inc.),
 the Gaussian(R) 98 system (copyright 1998, Gaussian, Inc.),
 the Gaussian(R) 94 system (copyright 1995, Gaussian, Inc.),
 the Gaussian 92(TM) system (copyright 1992, Gaussian, Inc.),
 the Gaussian 90(TM) system (copyright 1990, Gaussian, Inc.),
 the Gaussian 88(TM) system (copyright 1988, Gaussian, Inc.),
 the Gaussian 86(TM) system (copyright 1986, Carnegie Mellon
 University), and the Gaussian 82(TM) system (copyright 1983,
 Carnegie Mellon University). Gaussian is a federally registered
 trademark of Gaussian, Inc.
  
 This software contains proprietary and confidential information,
 including trade secrets, belonging to Gaussian, Inc.
  
 This software is provided under written license and may be
 used, copied, transmitted, or stored only in accord with that
 written license.
  
 The following legend is applicable only to US Government
 contracts under FAR:
  
                    RESTRICTED RIGHTS LEGEND
  
 Use, reproduction and disclosure by the US Government is
 subject to restrictions as set forth in subparagraphs (a)
 and (c) of the Commercial Computer Software - Restricted
 Rights clause in FAR 52.227-19.
  
 Gaussian, Inc.
 340 Quinnipiac St., Bldg. 40, Wallingford CT 06492
  
  
 ---------------------------------------------------------------
 Warning -- This program may not be used in any manner that
 competes with the business of Gaussian, Inc. or will provide
 assistance to any competitor of Gaussian, Inc.  The licensee
 of this program is prohibited from giving any competitor of
 Gaussian, Inc. access to this program.  By using this program,
 the user acknowledges that Gaussian, Inc. is engaged in the
 business of creating and licensing software in the field of
 computational chemistry and represents and warrants to the
 licensee that it is not a competitor of Gaussian, Inc. and that
 it will not use this program in any manner prohibited above.
 ---------------------------------------------------------------
  

 Cite this work as:
 Gaussian 16, Revision C.01,
 M. J. Frisch, G. W. Trucks, H. B. Schlegel, G. E. Scuseria, 
 M. A. Robb, J. R. Cheeseman, G. Scalmani, V. Barone, 
 G. A. Petersson, H. Nakatsuji, X. Li, M. Caricato, A. V. Marenich, 
 J. Bloino, B. G. Janesko, R. Gomperts, B. Mennucci, H. P. Hratchian, 
 J. V. Ortiz, A. F. Izmaylov, J. L. Sonnenberg, D. Williams-Young, 
 F. Ding, F. Lipparini, F. Egidi, J. Goings, B. Peng, A. Petrone, 
 T. Henderson, D. Ranasinghe, V. G. Zakrzewski, J. Gao, N. Rega, 
 G. Zheng, W. Liang, M. Hada, M. Ehara, K. Toyota, R. Fukuda, 
 J. Hasegawa, M. Ishida, T. Nakajima, Y. Honda, O. Kitao, H. Nakai, 
 T. Vreven, K. Throssell, J. A. Montgomery, Jr., J. E. Peralta, 
 F. Ogliaro, M. J. Bearpark, J. J. Heyd, E. N. Brothers, K. N. Kudin, 
 V. N. Staroverov, T. A. Keith, R. Kobayashi, J. Normand, 
 K. Raghavachari, A. P. Rendell, J. C. Burant, S. S. Iyengar, 
 J. Tomasi, M. Cossi, J. M. Millam, M. Klene, C. Adamo, R. Cammi, 
 J. W. Ochterski, R. L. Martin, K. Morokuma, O. Farkas, 
 J. B. Foresman, and D. J. Fox, Gaussian, Inc., Wallingford CT, 2019.
 
 ******************************************
 Gaussian 16:  ES64L-G16RevC.01  3-Jul-2019
                14-Nov-2023 
 ******************************************
 %nprocshared=32
 Will use up to   32 processors via shared memory.
 %mem=8000MB
 %chk=ph_fluorene_cp_7_1_m062x.chk
 -----------------------------------------
 # opt freq=noraman m062x def2tzvp pop=nbo
 -----------------------------------------
 1/18=20,19=15,26=3,38=1/1,3;
 2/9=110,12=2,17=6,18=5,40=1/2;
 3/5=44,7=101,11=2,25=1,30=1,71=1,74=-55/1,2,3;
 4//1;
 5/5=2,38=5/2;
 6/7=2,8=2,9=2,10=2,28=1,40=1/1,7;
 7//1,2,3,16;
 1/18=20,19=15,26=3/3(2);
 2/9=110/2;
 99//99;
 2/9=110/2;
 3/5=44,7=101,11=2,25=1,30=1,71=1,74=-55/1,2,3;
 4/5=5,16=3,69=1/1;
 5/5=2,38=5/2;
 7//1,2,3,16;
 1/18=20,19=15,26=3/3(-5);
 2/9=110/2;
 6/7=2,8=2,9=2,10=2,19=2,28=1,40=1/1,7;
 99/9=1/99;
 ------------
 Structure697
 ------------
 Symbolic Z-matrix:
 Charge =  0 Multiplicity = 1
 C                    -4.1819   -13.6708   12.9078 
 C                    -4.7311   -12.5812   13.5857 
 C                    -4.6486   -11.3015   13.0343 
 C                    -4.0156   -11.1096   11.8048 
 H                    -4.2512   -14.6578   13.3398 
 H                    -5.2211   -12.7296   14.537 
 H                    -3.9587   -10.1157   11.3861 
 C                    -3.5502   -13.4735   11.6783 
 C                    -3.461    -12.1978   11.1226 
 C                    -2.4263   -13.7147   9.6628 
 C                    -2.9008   -14.4213   10.7641 
 C                    -2.717    -15.8002   10.8513 
 C                    -2.0498   -16.4739   9.8277 
 C                    -1.5594   -15.7866   8.7076 
 C                    -1.7577   -14.3993   8.6431 
 H                    -3.0869   -16.3533   11.7011 
 H                    -1.9267   -17.544    9.9027 
 H                    -1.3757   -13.8461   7.7988 
 C                    -1.4472   -10.6193   8.4016 
 C                    -1.4626   -11.3358   9.7536 
 C                    -2.7338   -12.2253   9.782 
 C                    -3.5881   -11.6802   8.6045 
 C                    -2.9257   -10.3877   8.1182 
 H                    -1.5017   -10.5894   10.5488 
 H                    -0.5486   -11.9075   9.9225 
 H                    -3.6113   -12.3993   7.7839 
 H                    -4.6295   -11.5164   8.8862 
 H                    -1.0069   -11.261    7.6359 
 H                    -0.8745   -9.691     8.4263 
 H                    -3.2931   -9.5349    8.6923 
 H                    -3.1235   -10.1869   7.0641 
 C                     0.4906   -17.8679   5.564 
 C                     0.6926   -18.2448   6.8888 
 C                     0.0255   -17.5682   7.9072 
 C                    -0.8463   -16.5107   7.6143 
 C                    -1.0353   -16.1464   6.2742 
 C                    -0.3717   -16.8206   5.252 
 H                     1.0068   -18.392    4.7724 
 H                     1.3656   -19.0557   7.1268 
 H                     0.2004   -17.8603   8.9322 
 H                    -1.7124   -15.3444   6.0195 
 H                    -0.5285   -16.5338   4.2222 
 H                    -5.0751   -10.4587   13.5586 
 

 GradGradGradGradGradGradGradGradGradGradGradGradGradGradGradGradGradGrad
 Berny optimization.
 Initialization pass.
                           ----------------------------
                           !    Initial Parameters    !
                           ! (Angstroms and Degrees)  !
 --------------------------                            --------------------------
 ! Name  Definition              Value          Derivative Info.                !
 --------------------------------------------------------------------------------
 ! R1    R(1,2)                  1.3958         estimate D2E/DX2                !
 ! R2    R(1,5)                  1.0796         estimate D2E/DX2                !
 ! R3    R(1,8)                  1.3963         estimate D2E/DX2                !
 ! R4    R(2,3)                  1.3959         estimate D2E/DX2                !
 ! R5    R(2,6)                  1.0803         estimate D2E/DX2                !
 ! R6    R(3,4)                  1.3961         estimate D2E/DX2                !
 ! R7    R(3,43)                 1.0803         estimate D2E/DX2                !
 ! R8    R(4,7)                  1.08           estimate D2E/DX2                !
 ! R9    R(4,9)                  1.399          estimate D2E/DX2                !
 ! R10   R(8,9)                  1.3943         estimate D2E/DX2                !
 ! R11   R(8,11)                 1.4683         estimate D2E/DX2                !
 ! R12   R(9,21)                 1.5254         estimate D2E/DX2                !
 ! R13   R(10,11)                1.3919         estimate D2E/DX2                !
 ! R14   R(10,15)                1.3984         estimate D2E/DX2                !
 ! R15   R(10,21)                1.5255         estimate D2E/DX2                !
 ! R16   R(11,12)                1.3938         estimate D2E/DX2                !
 ! R17   R(12,13)                1.3953         estimate D2E/DX2                !
 ! R18   R(12,16)                1.0793         estimate D2E/DX2                !
 ! R19   R(13,14)                1.4027         estimate D2E/DX2                !
 ! R20   R(13,17)                1.0798         estimate D2E/DX2                !
 ! R21   R(14,15)                1.4029         estimate D2E/DX2                !
 ! R22   R(14,35)                1.4927         estimate D2E/DX2                !
 ! R23   R(15,18)                1.0793         estimate D2E/DX2                !
 ! R24   R(19,20)                1.5302         estimate D2E/DX2                !
 ! R25   R(19,23)                1.5231         estimate D2E/DX2                !
 ! R26   R(19,28)                1.0918         estimate D2E/DX2                !
 ! R27   R(19,29)                1.091          estimate D2E/DX2                !
 ! R28   R(20,21)                1.5518         estimate D2E/DX2                !
 ! R29   R(20,24)                1.0913         estimate D2E/DX2                !
 ! R30   R(20,25)                1.0912         estimate D2E/DX2                !
 ! R31   R(21,22)                1.5535         estimate D2E/DX2                !
 ! R32   R(22,23)                1.5316         estimate D2E/DX2                !
 ! R33   R(22,26)                1.0913         estimate D2E/DX2                !
 ! R34   R(22,27)                1.0912         estimate D2E/DX2                !
 ! R35   R(23,30)                1.0917         estimate D2E/DX2                !
 ! R36   R(23,31)                1.0911         estimate D2E/DX2                !
 ! R37   R(32,33)                1.3921         estimate D2E/DX2                !
 ! R38   R(32,37)                1.392          estimate D2E/DX2                !
 ! R39   R(32,38)                1.0806         estimate D2E/DX2                !
 ! R40   R(33,34)                1.3928         estimate D2E/DX2                !
 ! R41   R(33,39)                1.0803         estimate D2E/DX2                !
 ! R42   R(34,35)                1.4015         estimate D2E/DX2                !
 ! R43   R(34,40)                1.0801         estimate D2E/DX2                !
 ! R44   R(35,36)                1.4015         estimate D2E/DX2                !
 ! R45   R(36,37)                1.3928         estimate D2E/DX2                !
 ! R46   R(36,41)                1.0801         estimate D2E/DX2                !
 ! R47   R(37,42)                1.0804         estimate D2E/DX2                !
 ! A1    A(2,1,5)              119.6067         estimate D2E/DX2                !
 ! A2    A(2,1,8)              119.6922         estimate D2E/DX2                !
 ! A3    A(5,1,8)              120.701          estimate D2E/DX2                !
 ! A4    A(1,2,3)              120.0353         estimate D2E/DX2                !
 ! A5    A(1,2,6)              119.9261         estimate D2E/DX2                !
 ! A6    A(3,2,6)              120.0386         estimate D2E/DX2                !
 ! A7    A(2,3,4)              120.0451         estimate D2E/DX2                !
 ! A8    A(2,3,43)             120.0107         estimate D2E/DX2                !
 ! A9    A(4,3,43)             119.9443         estimate D2E/DX2                !
 ! A10   A(3,4,7)              119.4588         estimate D2E/DX2                !
 ! A11   A(3,4,9)              120.1498         estimate D2E/DX2                !
 ! A12   A(7,4,9)              120.3914         estimate D2E/DX2                !
 ! A13   A(1,8,9)              120.6076         estimate D2E/DX2                !
 ! A14   A(1,8,11)             131.0824         estimate D2E/DX2                !
 ! A15   A(9,8,11)             108.31           estimate D2E/DX2                !
 ! A16   A(4,9,8)              119.4697         estimate D2E/DX2                !
 ! A17   A(4,9,21)             129.167          estimate D2E/DX2                !
 ! A18   A(8,9,21)             111.3625         estimate D2E/DX2                !
 ! A19   A(11,10,15)           119.4347         estimate D2E/DX2                !
 ! A20   A(11,10,21)           111.4144         estimate D2E/DX2                !
 ! A21   A(15,10,21)           129.1493         estimate D2E/DX2                !
 ! A22   A(8,11,10)            108.4048         estimate D2E/DX2                !
 ! A23   A(8,11,12)            131.146          estimate D2E/DX2                !
 ! A24   A(10,11,12)           120.4491         estimate D2E/DX2                !
 ! A25   A(11,12,13)           119.6589         estimate D2E/DX2                !
 ! A26   A(11,12,16)           120.7328         estimate D2E/DX2                !
 ! A27   A(13,12,16)           119.6082         estimate D2E/DX2                !
 ! A28   A(12,13,14)           121.0925         estimate D2E/DX2                !
 ! A29   A(12,13,17)           118.8215         estimate D2E/DX2                !
 ! A30   A(14,13,17)           120.0804         estimate D2E/DX2                !
 ! A31   A(13,14,15)           118.1541         estimate D2E/DX2                !
 ! A32   A(13,14,35)           120.9447         estimate D2E/DX2                !
 ! A33   A(15,14,35)           120.9012         estimate D2E/DX2                !
 ! A34   A(10,15,14)           121.2104         estimate D2E/DX2                !
 ! A35   A(10,15,18)           119.2578         estimate D2E/DX2                !
 ! A36   A(14,15,18)           119.5259         estimate D2E/DX2                !
 ! A37   A(20,19,23)           103.0514         estimate D2E/DX2                !
 ! A38   A(20,19,28)           110.3964         estimate D2E/DX2                !
 ! A39   A(20,19,29)           112.5619         estimate D2E/DX2                !
 ! A40   A(23,19,28)           110.509          estimate D2E/DX2                !
 ! A41   A(23,19,29)           112.6049         estimate D2E/DX2                !
 ! A42   A(28,19,29)           107.715          estimate D2E/DX2                !
 ! A43   A(19,20,21)           107.0268         estimate D2E/DX2                !
 ! A44   A(19,20,24)           108.8998         estimate D2E/DX2                !
 ! A45   A(19,20,25)           111.9403         estimate D2E/DX2                !
 ! A46   A(21,20,24)           110.4483         estimate D2E/DX2                !
 ! A47   A(21,20,25)           112.5201         estimate D2E/DX2                !
 ! A48   A(24,20,25)           105.9948         estimate D2E/DX2                !
 ! A49   A(9,21,10)            100.5081         estimate D2E/DX2                !
 ! A50   A(9,21,20)            113.3464         estimate D2E/DX2                !
 ! A51   A(9,21,22)            113.4312         estimate D2E/DX2                !
 ! A52   A(10,21,20)           113.1477         estimate D2E/DX2                !
 ! A53   A(10,21,22)           113.2162         estimate D2E/DX2                !
 ! A54   A(20,21,22)           103.62           estimate D2E/DX2                !
 ! A55   A(21,22,23)           107.3933         estimate D2E/DX2                !
 ! A56   A(21,22,26)           110.5123         estimate D2E/DX2                !
 ! A57   A(21,22,27)           112.4461         estimate D2E/DX2                !
 ! A58   A(23,22,26)           109.0565         estimate D2E/DX2                !
 ! A59   A(23,22,27)           111.595          estimate D2E/DX2                !
 ! A60   A(26,22,27)           105.8271         estimate D2E/DX2                !
 ! A61   A(19,23,22)           103.4396         estimate D2E/DX2                !
 ! A62   A(19,23,30)           110.3411         estimate D2E/DX2                !
 ! A63   A(19,23,31)           112.5631         estimate D2E/DX2                !
 ! A64   A(22,23,30)           110.285          estimate D2E/DX2                !
 ! A65   A(22,23,31)           112.5588         estimate D2E/DX2                !
 ! A66   A(30,23,31)           107.6535         estimate D2E/DX2                !
 ! A67   A(33,32,37)           120.456          estimate D2E/DX2                !
 ! A68   A(33,32,38)           119.7684         estimate D2E/DX2                !
 ! A69   A(37,32,38)           119.7756         estimate D2E/DX2                !
 ! A70   A(32,33,34)           119.6572         estimate D2E/DX2                !
 ! A71   A(32,33,39)           120.216          estimate D2E/DX2                !
 ! A72   A(34,33,39)           120.1265         estimate D2E/DX2                !
 ! A73   A(33,34,35)           120.7755         estimate D2E/DX2                !
 ! A74   A(33,34,40)           119.0102         estimate D2E/DX2                !
 ! A75   A(35,34,40)           120.2081         estimate D2E/DX2                !
 ! A76   A(14,35,34)           120.6728         estimate D2E/DX2                !
 ! A77   A(14,35,36)           120.6515         estimate D2E/DX2                !
 ! A78   A(34,35,36)           118.6757         estimate D2E/DX2                !
 ! A79   A(35,36,37)           120.7762         estimate D2E/DX2                !
 ! A80   A(35,36,41)           120.2008         estimate D2E/DX2                !
 ! A81   A(37,36,41)           119.0169         estimate D2E/DX2                !
 ! A82   A(32,37,36)           119.6593         estimate D2E/DX2                !
 ! A83   A(32,37,42)           120.2148         estimate D2E/DX2                !
 ! A84   A(36,37,42)           120.1256         estimate D2E/DX2                !
 ! D1    D(5,1,2,3)           -179.8915         estimate D2E/DX2                !
 ! D2    D(5,1,2,6)              0.0354         estimate D2E/DX2                !
 ! D3    D(8,1,2,3)              0.0453         estimate D2E/DX2                !
 ! D4    D(8,1,2,6)            179.9722         estimate D2E/DX2                !
 ! D5    D(2,1,8,9)              0.1083         estimate D2E/DX2                !
 ! D6    D(2,1,8,11)          -179.8291         estimate D2E/DX2                !
 ! D7    D(5,1,8,9)           -179.9556         estimate D2E/DX2                !
 ! D8    D(5,1,8,11)             0.107          estimate D2E/DX2                !
 ! D9    D(1,2,3,4)             -0.0617         estimate D2E/DX2                !
 ! D10   D(1,2,3,43)           179.908          estimate D2E/DX2                !
 ! D11   D(6,2,3,4)           -179.9885         estimate D2E/DX2                !
 ! D12   D(6,2,3,43)            -0.0187         estimate D2E/DX2                !
 ! D13   D(2,3,4,7)            179.8937         estimate D2E/DX2                !
 ! D14   D(2,3,4,9)             -0.0747         estimate D2E/DX2                !
 ! D15   D(43,3,4,7)            -0.076          estimate D2E/DX2                !
 ! D16   D(43,3,4,9)           179.9555         estimate D2E/DX2                !
 ! D17   D(3,4,9,8)              0.2259         estimate D2E/DX2                !
 ! D18   D(3,4,9,21)           179.8609         estimate D2E/DX2                !
 ! D19   D(7,4,9,8)           -179.7423         estimate D2E/DX2                !
 ! D20   D(7,4,9,21)            -0.1072         estimate D2E/DX2                !
 ! D21   D(1,8,9,4)             -0.2433         estimate D2E/DX2                !
 ! D22   D(1,8,9,21)          -179.9394         estimate D2E/DX2                !
 ! D23   D(11,8,9,4)           179.707          estimate D2E/DX2                !
 ! D24   D(11,8,9,21)            0.0108         estimate D2E/DX2                !
 ! D25   D(1,8,11,10)          179.8361         estimate D2E/DX2                !
 ! D26   D(1,8,11,12)           -0.2144         estimate D2E/DX2                !
 ! D27   D(9,8,11,10)           -0.1071         estimate D2E/DX2                !
 ! D28   D(9,8,11,12)          179.8424         estimate D2E/DX2                !
 ! D29   D(4,9,21,10)         -179.5806         estimate D2E/DX2                !
 ! D30   D(4,9,21,20)           59.3871         estimate D2E/DX2                !
 ! D31   D(4,9,21,22)          -58.4263         estimate D2E/DX2                !
 ! D32   D(8,9,21,10)            0.0782         estimate D2E/DX2                !
 ! D33   D(8,9,21,20)         -120.9541         estimate D2E/DX2                !
 ! D34   D(8,9,21,22)          121.2325         estimate D2E/DX2                !
 ! D35   D(15,10,11,8)         179.7416         estimate D2E/DX2                !
 ! D36   D(15,10,11,12)         -0.2143         estimate D2E/DX2                !
 ! D37   D(21,10,11,8)           0.1624         estimate D2E/DX2                !
 ! D38   D(21,10,11,12)       -179.7934         estimate D2E/DX2                !
 ! D39   D(11,10,15,14)          0.1819         estimate D2E/DX2                !
 ! D40   D(11,10,15,18)       -178.9309         estimate D2E/DX2                !
 ! D41   D(21,10,15,14)        179.6767         estimate D2E/DX2                !
 ! D42   D(21,10,15,18)          0.5639         estimate D2E/DX2                !
 ! D43   D(11,10,21,9)          -0.1466         estimate D2E/DX2                !
 ! D44   D(11,10,21,20)        121.0272         estimate D2E/DX2                !
 ! D45   D(11,10,21,22)       -121.4539         estimate D2E/DX2                !
 ! D46   D(15,10,21,9)        -179.674          estimate D2E/DX2                !
 ! D47   D(15,10,21,20)        -58.5002         estimate D2E/DX2                !
 ! D48   D(15,10,21,22)         59.0188         estimate D2E/DX2                !
 ! D49   D(8,11,12,13)        -179.7981         estimate D2E/DX2                !
 ! D50   D(8,11,12,16)           0.3287         estimate D2E/DX2                !
 ! D51   D(10,11,12,13)          0.1463         estimate D2E/DX2                !
 ! D52   D(10,11,12,16)       -179.7269         estimate D2E/DX2                !
 ! D53   D(11,12,13,14)         -0.043          estimate D2E/DX2                !
 ! D54   D(11,12,13,17)       -179.1796         estimate D2E/DX2                !
 ! D55   D(16,12,13,14)        179.8316         estimate D2E/DX2                !
 ! D56   D(16,12,13,17)          0.695          estimate D2E/DX2                !
 ! D57   D(12,13,14,15)          0.0097         estimate D2E/DX2                !
 ! D58   D(12,13,14,35)       -179.9886         estimate D2E/DX2                !
 ! D59   D(17,13,14,15)        179.1355         estimate D2E/DX2                !
 ! D60   D(17,13,14,35)         -0.8627         estimate D2E/DX2                !
 ! D61   D(13,14,15,10)         -0.0796         estimate D2E/DX2                !
 ! D62   D(13,14,15,18)        179.0308         estimate D2E/DX2                !
 ! D63   D(35,14,15,10)        179.9187         estimate D2E/DX2                !
 ! D64   D(35,14,15,18)         -0.9709         estimate D2E/DX2                !
 ! D65   D(13,14,35,34)        -37.9797         estimate D2E/DX2                !
 ! D66   D(13,14,35,36)        142.0232         estimate D2E/DX2                !
 ! D67   D(15,14,35,34)        142.0221         estimate D2E/DX2                !
 ! D68   D(15,14,35,36)        -37.975          estimate D2E/DX2                !
 ! D69   D(23,19,20,21)         34.1611         estimate D2E/DX2                !
 ! D70   D(23,19,20,24)        -85.2484         estimate D2E/DX2                !
 ! D71   D(23,19,20,25)        157.8856         estimate D2E/DX2                !
 ! D72   D(28,19,20,21)        -83.8665         estimate D2E/DX2                !
 ! D73   D(28,19,20,24)        156.7241         estimate D2E/DX2                !
 ! D74   D(28,19,20,25)         39.858          estimate D2E/DX2                !
 ! D75   D(29,19,20,21)        155.7339         estimate D2E/DX2                !
 ! D76   D(29,19,20,24)         36.3245         estimate D2E/DX2                !
 ! D77   D(29,19,20,25)        -80.5416         estimate D2E/DX2                !
 ! D78   D(20,19,23,22)        -39.3661         estimate D2E/DX2                !
 ! D79   D(20,19,23,30)         78.587          estimate D2E/DX2                !
 ! D80   D(20,19,23,31)       -161.1298         estimate D2E/DX2                !
 ! D81   D(28,19,23,22)         78.5824         estimate D2E/DX2                !
 ! D82   D(28,19,23,30)       -163.4645         estimate D2E/DX2                !
 ! D83   D(28,19,23,31)        -43.1813         estimate D2E/DX2                !
 ! D84   D(29,19,23,22)       -160.9098         estimate D2E/DX2                !
 ! D85   D(29,19,23,30)        -42.9567         estimate D2E/DX2                !
 ! D86   D(29,19,23,31)         77.3265         estimate D2E/DX2                !
 ! D87   D(19,20,21,9)        -138.4345         estimate D2E/DX2                !
 ! D88   D(19,20,21,10)        107.9524         estimate D2E/DX2                !
 ! D89   D(19,20,21,22)        -15.0522         estimate D2E/DX2                !
 ! D90   D(24,20,21,9)         -20.0277         estimate D2E/DX2                !
 ! D91   D(24,20,21,10)       -133.6409         estimate D2E/DX2                !
 ! D92   D(24,20,21,22)        103.3545         estimate D2E/DX2                !
 ! D93   D(25,20,21,9)          98.1983         estimate D2E/DX2                !
 ! D94   D(25,20,21,10)        -15.4148         estimate D2E/DX2                !
 ! D95   D(25,20,21,22)       -138.4194         estimate D2E/DX2                !
 ! D96   D(9,21,22,23)         113.6434         estimate D2E/DX2                !
 ! D97   D(9,21,22,26)        -127.5077         estimate D2E/DX2                !
 ! D98   D(9,21,22,27)          -9.4976         estimate D2E/DX2                !
 ! D99   D(10,21,22,23)       -132.6425         estimate D2E/DX2                !
 ! D100  D(10,21,22,26)        -13.7936         estimate D2E/DX2                !
 ! D101  D(10,21,22,27)        104.2164         estimate D2E/DX2                !
 ! D102  D(20,21,22,23)         -9.6832         estimate D2E/DX2                !
 ! D103  D(20,21,22,26)        109.1658         estimate D2E/DX2                !
 ! D104  D(20,21,22,27)       -132.8242         estimate D2E/DX2                !
 ! D105  D(21,22,23,19)         30.7499         estimate D2E/DX2                !
 ! D106  D(21,22,23,30)        -87.2423         estimate D2E/DX2                !
 ! D107  D(21,22,23,31)        152.5164         estimate D2E/DX2                !
 ! D108  D(26,22,23,19)        -89.0317         estimate D2E/DX2                !
 ! D109  D(26,22,23,30)        152.9761         estimate D2E/DX2                !
 ! D110  D(26,22,23,31)         32.7348         estimate D2E/DX2                !
 ! D111  D(27,22,23,19)        154.4129         estimate D2E/DX2                !
 ! D112  D(27,22,23,30)         36.4208         estimate D2E/DX2                !
 ! D113  D(27,22,23,31)        -83.8205         estimate D2E/DX2                !
 ! D114  D(37,32,33,34)          0.0371         estimate D2E/DX2                !
 ! D115  D(37,32,33,39)       -179.7657         estimate D2E/DX2                !
 ! D116  D(38,32,33,34)       -179.9635         estimate D2E/DX2                !
 ! D117  D(38,32,33,39)          0.2337         estimate D2E/DX2                !
 ! D118  D(33,32,37,36)          0.0277         estimate D2E/DX2                !
 ! D119  D(33,32,37,42)       -179.7654         estimate D2E/DX2                !
 ! D120  D(38,32,37,36)       -179.9718         estimate D2E/DX2                !
 ! D121  D(38,32,37,42)          0.2351         estimate D2E/DX2                !
 ! D122  D(32,33,34,35)         -0.0692         estimate D2E/DX2                !
 ! D123  D(32,33,34,40)       -179.1615         estimate D2E/DX2                !
 ! D124  D(39,33,34,35)        179.7337         estimate D2E/DX2                !
 ! D125  D(39,33,34,40)          0.6415         estimate D2E/DX2                !
 ! D126  D(33,34,35,14)       -179.9613         estimate D2E/DX2                !
 ! D127  D(33,34,35,36)          0.0359         estimate D2E/DX2                !
 ! D128  D(40,34,35,14)         -0.8799         estimate D2E/DX2                !
 ! D129  D(40,34,35,36)        179.1173         estimate D2E/DX2                !
 ! D130  D(14,35,36,37)       -179.9731         estimate D2E/DX2                !
 ! D131  D(14,35,36,41)         -0.8831         estimate D2E/DX2                !
 ! D132  D(34,35,36,37)          0.0298         estimate D2E/DX2                !
 ! D133  D(34,35,36,41)        179.1197         estimate D2E/DX2                !
 ! D134  D(35,36,37,32)         -0.0614         estimate D2E/DX2                !
 ! D135  D(35,36,37,42)        179.7319         estimate D2E/DX2                !
 ! D136  D(41,36,37,32)       -179.162          estimate D2E/DX2                !
 ! D137  D(41,36,37,42)          0.6313         estimate D2E/DX2                !
 --------------------------------------------------------------------------------
 Trust Radius=3.00D-01 FncErr=1.00D-07 GrdErr=1.00D-06 EigMax=2.50D+02 EigMin=1.00D-04
 Number of steps in this run=    258 maximum allowed number of steps=    258.
 GradGradGradGradGradGradGradGradGradGradGradGradGradGradGradGradGradGrad

                          Input orientation:                          
 ---------------------------------------------------------------------
 Center     Atomic      Atomic             Coordinates (Angstroms)
 Number     Number       Type             X           Y           Z
 ---------------------------------------------------------------------
      1          6           0       -4.181900  -13.670800   12.907800
      2          6           0       -4.731100  -12.581200   13.585700
      3          6           0       -4.648600  -11.301500   13.034300
      4          6           0       -4.015600  -11.109600   11.804800
      5          1           0       -4.251200  -14.657800   13.339800
      6          1           0       -5.221100  -12.729600   14.537000
      7          1           0       -3.958700  -10.115700   11.386100
      8          6           0       -3.550200  -13.473500   11.678300
      9          6           0       -3.461000  -12.197800   11.122600
     10          6           0       -2.426300  -13.714700    9.662800
     11          6           0       -2.900800  -14.421300   10.764100
     12          6           0       -2.717000  -15.800200   10.851300
     13          6           0       -2.049800  -16.473900    9.827700
     14          6           0       -1.559400  -15.786600    8.707600
     15          6           0       -1.757700  -14.399300    8.643100
     16          1           0       -3.086900  -16.353300   11.701100
     17          1           0       -1.926700  -17.544000    9.902700
     18          1           0       -1.375700  -13.846100    7.798800
     19          6           0       -1.447200  -10.619300    8.401600
     20          6           0       -1.462600  -11.335800    9.753600
     21          6           0       -2.733800  -12.225300    9.782000
     22          6           0       -3.588100  -11.680200    8.604500
     23          6           0       -2.925700  -10.387700    8.118200
     24          1           0       -1.501700  -10.589400   10.548800
     25          1           0       -0.548600  -11.907500    9.922500
     26          1           0       -3.611300  -12.399300    7.783900
     27          1           0       -4.629500  -11.516400    8.886200
     28          1           0       -1.006900  -11.261000    7.635900
     29          1           0       -0.874500   -9.691000    8.426300
     30          1           0       -3.293100   -9.534900    8.692300
     31          1           0       -3.123500  -10.186900    7.064100
     32          6           0        0.490600  -17.867900    5.564000
     33          6           0        0.692600  -18.244800    6.888800
     34          6           0        0.025500  -17.568200    7.907200
     35          6           0       -0.846300  -16.510700    7.614300
     36          6           0       -1.035300  -16.146400    6.274200
     37          6           0       -0.371700  -16.820600    5.252000
     38          1           0        1.006800  -18.392000    4.772400
     39          1           0        1.365600  -19.055700    7.126800
     40          1           0        0.200400  -17.860300    8.932200
     41          1           0       -1.712400  -15.344400    6.019500
     42          1           0       -0.528500  -16.533800    4.222200
     43          1           0       -5.075100  -10.458700   13.558600
 ---------------------------------------------------------------------
                    Distance matrix (angstroms):
                    1          2          3          4          5
     1  C    0.000000
     2  C    1.395850   0.000000
     3  C    2.418138   1.395880   0.000000
     4  C    2.793566   2.418502   1.396132   0.000000
     5  H    1.079627   2.145469   3.393524   3.873171   0.000000
     6  H    2.149439   1.080321   2.150659   3.397432   2.468187
     7  H    3.873516   3.393160   2.144446   1.079993   4.953097
     8  C    1.396296   2.414311   2.786181   2.412597   2.157441
     9  C    2.424121   2.797680   2.422467   1.398984   3.404701
    10  C    3.689727   4.688931   4.704165   3.728349   4.211891
    11  C    2.607665   3.833718   4.235772   3.645983   2.917832
    12  C    3.302948   4.679263   5.360492   4.959562   3.138707
    13  C    4.678700   6.038630   6.617384   6.045578   4.525398
    14  C    5.384774   6.643051   6.955545   6.123716   5.475149
    15  C    4.959347   6.047800   6.102156   5.090833   5.323848
    16  H    3.138623   4.525909   5.453165   5.326315   2.629763
    17  H    5.396131   6.786644   7.495630   7.027303   5.054415
    18  H    5.831584   6.807855   6.678123   5.523182   6.295239
    19  C    6.090655   6.442666   5.672413   4.291718   6.968337
    20  C    4.774494   5.188362   4.573266   3.282742   5.627860
    21  C    3.735919   4.310917   3.885527   2.641878   4.569190
    22  C    4.778439   5.189470   4.570689   3.278759   5.632838
    23  C    5.941132   6.161531   5.288805   3.911527   6.874286
    24  H    4.716289   4.859944   4.072809   2.857943   5.648124
    25  H    5.022162   5.600555   5.182715   4.024896   5.740325
    26  H    5.310052   5.911677   5.463319   4.241983   6.031444
    27  H    4.584218   4.819691   4.153707   3.010081   5.463155
    28  H    6.609137   7.142319   6.512015   5.143435   7.389060
    29  H    6.845549   7.060172   6.170187   4.826303   7.759748
    30  H    5.972108   5.940804   4.879674   3.562210   6.982930
    31  H    6.885245   7.130801   6.261913   4.911360   7.787494
    32  C    9.663297  10.934488  11.195283  10.243439   9.656732
    33  C    8.995031  10.312195  10.700701   9.861302   8.883869
    34  C    7.609070   8.929769   9.349112   8.557762   7.501582
    35  C    6.871128   8.135740   8.424349   7.535027   6.914328
    36  C    7.748183   8.934630   9.067963   8.052272   7.904470
    37  C    9.113185  10.316367  10.455455   9.425111   9.227174
    38  H   10.742303  12.015122  12.268567  11.300996  10.723393
    39  H    9.653593  10.991191  11.454116  10.676212   9.459986
    40  H    7.249956   8.593233   9.130054   8.461586   7.035601
    41  H    7.506533   8.602047   8.612417   7.530469   7.778414
    42  H    9.848033  10.998183  11.045601   9.953775  10.025393
    43  H    3.396901   2.150367   1.080326   2.149890   4.284755
                    6          7          8          9         10
     6  H    0.000000
     7  H    4.284192   0.000000
     8  C    3.393738   3.395154   0.000000
     9  C    3.878001   2.156914   1.394335   0.000000
    10  C    5.704310   4.274437   2.320252   2.345763   0.000000
    11  C    4.741352   4.477078   1.468267   2.320840   1.391868
    12  C    5.411422   5.843062   2.606086   3.688418   2.417922
    13  C    6.801061   6.819033   3.831230   4.685433   2.789647
    14  C    7.532277   6.714917   4.258964   4.725229   2.440634
    15  C    7.037123   5.542353   3.644530   3.727701   1.398389
    16  H    5.072311   6.306101   2.916919   4.212220   3.399010
    17  H    7.450386   7.842776   4.728369   5.694215   3.869198
    18  H    7.838177   5.784159   4.462936   4.255939   2.143717
    19  C    7.505919   3.933000   4.827611   3.735090   3.482925
    20  C    6.240987   3.222455   3.554195   2.571149   2.568293
    21  C    5.389898   2.919577   2.412564   1.525380   1.525476
    22  C    6.241994   3.212834   3.558877   2.573887   2.570791
    23  C    7.207937   3.438058   4.752523   3.548158   3.701907
    24  H    5.858339   2.638619   3.713510   2.599049   3.377481
    25  H    6.618286   4.120856   3.813764   3.163319   2.619002
    26  H    6.950174   4.279178   4.040296   3.348150   2.581621
    27  H    5.809766   2.943031   3.576444   2.613653   3.207759
    28  H    8.218360   4.908038   5.263509   4.365464   3.484776
    29  H    8.091148   4.295704   5.660581   4.499340   4.486332
    30  H    6.934249   2.834945   4.949229   3.609098   4.377664
    31  H    8.167587   4.402535   5.681079   4.541921   4.436745
    32  C   11.812721  10.667227   8.545378   8.869228   6.523614
    33  C   11.130330  10.389541   7.981602   8.470163   6.159904
    34  C    9.741309   9.138728   6.616146   7.164892   4.893150
    35  C    9.019943   8.050437   5.749066   6.143772   3.809248
    36  C    9.872655   8.428946   6.532489   6.706895   4.396664
    37  C   11.245630   9.769823   7.912223   8.085666   5.772621
    38  H   12.891739  11.700186   9.625453   9.932492   7.588104
    39  H   11.760749  11.243372   8.720218   9.289418   7.023965
    40  H    9.334373   9.126805   6.391563   7.089965   4.961787
    41  H    9.575801   7.822120   6.236970   6.245024   4.054530
    42  H   11.953557  10.211745   8.607528   8.661176   6.414756
    43  H    2.477008   2.466527   3.866506   3.400571   5.726686
                   11         12         13         14         15
    11  C    0.000000
    12  C    1.393826   0.000000
    13  C    2.411268   1.395272   0.000000
    14  C    2.809375   2.436324   1.402675   0.000000
    15  C    2.409523   2.785485   2.406775   1.402884   0.000000
    16  H    2.155279   1.079308   2.144702   3.408144   3.864745
    17  H    3.382623   2.136646   1.079765   2.156763   3.391798
    18  H    3.383754   3.864628   3.387651   2.150629   1.079257
    19  C    4.706332   5.869851   6.055843   5.177568   3.800412
    20  C    3.551034   4.765431   5.172076   4.573085   3.271900
    21  C    2.411395   3.731433   4.303550   3.900822   2.641238
    22  C    3.556667   4.772979   5.180941   4.581351   3.278011
    23  C    4.824037   6.067005   6.382117   5.600204   4.211019
    24  H    4.085008   5.359188   5.953800   5.514003   4.267618
    25  H    3.544055   4.551675   4.807764   4.188689   3.050878
    26  H    3.670815   4.666351   4.818482   4.066610   2.859031
    27  H    3.866957   5.086277   5.667282   5.262321   4.076450
    28  H    4.833217   5.819586   5.750300   4.683466   3.380396
    29  H    5.652162   6.826255   7.025168   6.140404   4.795324
    30  H    5.321951   6.651854   7.140354   6.487658   5.101202
    31  H    5.627587   6.783603   6.951020   6.041866   4.701379
    32  C    7.100823   6.520707   5.155192   4.291449   5.154308
    33  C    6.523007   5.770862   4.392491   3.797668   4.885633
    34  C    5.160241   4.394867   3.031944   2.515283   3.709889
    35  C    4.302070   3.805588   2.519704   1.492695   2.519343
    36  C    5.158998   4.888539   3.709963   2.515069   3.030826
    37  C    6.521981   6.155795   4.886026   3.797494   4.391270
    38  H    8.181459   7.585324   6.211117   5.372084   6.210188
    39  H    7.273911   6.413876   5.062164   4.662785   5.808290
    40  H    4.979962   4.054402   2.790596   2.729024   3.987011
    41  H    4.977513   4.956134   3.986477   2.728522   2.789004
    42  H    7.272339   7.019449   5.808577   4.662604   5.060769
    43  H    5.314039   6.435972   7.697707   8.017410   7.120085
                   16         17         18         19         20
    16  H    0.000000
    17  H    2.449096   0.000000
    18  H    4.943906   4.290042   0.000000
    19  C    6.815722   7.101739   3.283400   0.000000
    20  C    5.621958   6.227308   3.182829   1.530200   0.000000
    21  C    4.565962   5.380943   2.899053   2.477918   1.551762
    22  C    5.628321   6.231350   3.199217   2.397943   2.440654
    23  C    6.960714   7.442787   3.803294   1.523127   2.390416
    24  H    6.087955   6.997466   4.264325   2.148100   1.091323
    25  H    5.419550   5.802558   2.992050   2.186339   1.091221
    26  H    5.590489   5.813358   2.662961   2.869370   3.102847
    27  H    5.805074   6.683589   4.146945   3.341655   3.288503
    28  H    6.839866   6.742440   2.616351   1.091760   2.167466
    29  H    7.746307   8.059559   4.231999   1.091025   2.193845
    30  H    7.455600   8.214487   4.802209   2.160504   2.778548
    31  H    7.715413   7.976020   4.121205   2.187660   3.363327
    32  C    7.263368   4.977205   4.965106   8.021798   8.002254
    33  C    6.404734   4.054065   4.945152   8.063223   7.783717
    34  C    5.055363   2.791718   3.978585   7.120428   6.668316
    35  C    4.663368   2.733450   2.722939   5.974070   5.633473
    36  C    5.805438   3.989222   2.780586   5.936693   5.952368
    37  C    7.012957   4.956848   4.042506   7.037954   7.178962
    38  H    8.301901   5.970302   5.958239   8.922336   8.983332
    39  H    6.931951   4.564000   5.925052   8.983864   8.631086
    40  H    4.554580   2.359337   4.458978   7.445012   6.783021
    41  H    5.931923   4.468043   2.350357   5.298236   5.484047
    42  H    7.906449   5.936628   4.553410   7.300185   7.647753
    43  H    6.492269   8.572019   7.637757   6.307305   5.319538
                   21         22         23         24         25
    21  C    0.000000
    22  C    1.553534   0.000000
    23  C    2.486329   1.531606   0.000000
    24  H    2.186829   3.053394   2.824230   0.000000
    25  H    2.212654   3.320745   3.349014   1.742997   0.000000
    26  H    2.189220   1.091342   2.151357   3.920564   3.767706
    27  H    2.213295   1.091192   2.183282   3.661516   4.228548
    28  H    2.918528   2.788639   2.162651   3.029993   2.420029
    29  H    3.423097   3.369317   2.188090   2.388621   2.694011
    30  H    2.956098   2.167267   1.091715   2.787055   3.830784
    31  H    3.419638   2.195138   1.091133   3.864631   4.214383
    32  C    7.747723   8.010497   8.610949   9.044006   7.456730
    33  C    7.506344   8.022593   8.737136   8.764457   7.134794
    34  C    6.298825   6.943549   7.766188   7.616695   6.036104
    35  C    5.160061   5.641958   6.486058   6.640981   5.158087
    36  C    5.528525   5.647480   6.335343   7.026378   5.613844
    37  C    6.871477   6.928795   7.491343   8.255958   6.781107
    38  H    8.781593   8.991460   9.525112  10.026960   8.425648
    39  H    8.396995   9.006705   9.722775   9.571297   7.910554
    40  H    6.409752   7.256291   8.140937   7.640453   6.080915
    41  H    4.992840   4.860745   5.517745   6.570310   5.329176
    42  H    7.371424   7.219636   7.661588   8.735495   7.341422
    43  H    4.781764   5.314728   5.850035   4.673881   5.984100
                   26         27         28         29         30
    26  H    0.000000
    27  H    1.741065   0.000000
    28  H    2.846143   3.840795   0.000000
    29  H    3.903542   4.200431   1.762714   0.000000
    30  H    3.021792   2.397896   3.053213   2.438186   0.000000
    31  H    2.377136   2.712131   2.441443   2.675725   1.762074
    32  C    7.187428   8.808745   7.084236   8.770288   9.671687
    33  C    7.314002   8.808276   7.226335   8.831036   9.746834
    34  C    6.321317   7.697516   6.396892   7.945423   8.727164
    35  C    4.957580   6.393228   5.252200   6.867929   7.470656
    36  C    4.791214   6.416987   5.071703   6.806584   7.393024
    37  C    6.037667   7.711732   6.082402   7.820498   8.570395
    38  H    8.142999   9.796178   7.943915   9.622769  10.597310
    39  H    8.337204   9.791719   8.163656   9.716190  10.714472
    40  H    6.757971   7.973401   6.832915   8.255229   9.031854
    41  H    3.923333   5.601877   4.447992   6.201266   6.587318
    42  H    6.267651   7.984072   6.299574   8.038537   8.752680
    43  H    6.265445   4.811300   7.229959   6.676444   5.264010
                   31         32         33         34         35
    31  H    0.000000
    32  C    8.620312   0.000000
    33  C    8.917573   1.392104   0.000000
    34  C    8.069114   2.407639   1.392820   0.000000
    35  C    6.743798   2.798754   2.429335   1.401475   0.000000
    36  C    6.363974   2.407554   2.786872   2.411120   1.401536
    37  C    7.406894   1.392028   2.416649   2.786891   2.429351
    38  H    9.467573   1.080636   2.144653   3.386527   3.879390
    39  H    9.940401   2.149148   1.080339   2.148848   3.406932
    40  H    8.568499   3.380687   2.136723   1.080064   2.157281
    41  H    5.448137   3.380642   3.866785   3.395437   2.157260
    42  H    7.422504   2.149143   3.395491   3.867315   3.407033
    43  H    6.786836  12.238745  11.763331  10.416306   9.478616
                   36         37         38         39         40
    36  C    0.000000
    37  C    1.392768   0.000000
    38  H    3.386487   2.144662   0.000000
    39  H    3.867205   3.395403   2.472334   0.000000
    40  H    3.395493   3.866801   4.270471   2.458890   0.000000
    41  H    1.080065   2.136750   4.270500   4.947115   4.297950
    42  H    2.148867   1.080430   2.472402   4.287691   4.947221
    43  H   10.086248  11.471502  13.308797  12.520347  10.198929
                   41         42         43
    41  H    0.000000
    42  H    2.458979   0.000000
    43  H    9.592489  12.031075   0.000000
 Stoichiometry    C23H20
 Framework group  C1[X(C23H20)]
 Deg. of freedom   123
 Full point group                 C1      NOp   1
 Largest Abelian subgroup         C1      NOp   1
 Largest concise Abelian subgroup C1      NOp   1
                         Standard orientation:                         
 ---------------------------------------------------------------------
 Center     Atomic      Atomic             Coordinates (Angstroms)
 Number     Number       Type             X           Y           Z
 ---------------------------------------------------------------------
      1          6           0       -3.223468   -2.447714   -0.125858
      2          6           0       -4.599045   -2.211598   -0.105009
      3          6           0       -5.082472   -0.904405   -0.027373
      4          6           0       -4.190824    0.168331    0.030815
      5          1           0       -2.857162   -3.461409   -0.187798
      6          1           0       -5.289093   -3.041588   -0.150218
      7          1           0       -4.575204    1.175929    0.088961
      8          6           0       -2.335988   -1.371308   -0.067779
      9          6           0       -2.811203   -0.062952    0.013112
     10          6           0       -0.466374    0.001251   -0.003018
     11          6           0       -0.868347   -1.329296   -0.076218
     12          6           0        0.078018   -2.350561   -0.140748
     13          6           0        1.436937   -2.034370   -0.128655
     14          6           0        1.870091   -0.702377   -0.053352
     15          6           0        0.898072    0.307208    0.009918
     16          1           0       -0.228590   -3.383585   -0.202046
     17          1           0        2.158314   -2.835246   -0.192729
     18          1           0        1.206661    1.338732    0.084272
     19          6           0       -1.334350    3.250594    0.902051
     20          6           0       -1.677291    1.825057    1.339941
     21          6           0       -1.665094    0.942361    0.063749
     22          6           0       -1.697902    1.975518   -1.095983
     23          6           0       -1.972355    3.349539   -0.477469
     24          1           0       -2.669303    1.823979    1.794800
     25          1           0       -0.993975    1.458913    2.107914
     26          1           0       -0.736353    2.002440   -1.611471
     27          1           0       -2.437112    1.723201   -1.857957
     28          1           0       -0.252189    3.377473    0.832992
     29          1           0       -1.713402    4.003795    1.594398
     30          1           0       -3.047517    3.516075   -0.387273
     31          1           0       -1.559745    4.166173   -1.071972
     32          6           0        6.052090    0.259984   -0.017731
     33          6           0        5.595757   -0.864354    0.664601
     34          6           0        4.238079   -1.174950    0.650887
     35          6           0        3.324761   -0.367840   -0.040890
     36          6           0        3.804430    0.759927   -0.720863
     37          6           0        5.161247    1.074191   -0.711422
     38          1           0        7.105166    0.502316   -0.008776
     39          1           0        6.290029   -1.491448    1.204852
     40          1           0        3.893577   -2.041959    1.195085
     41          1           0        3.124305    1.391073   -1.273697
     42          1           0        5.520171    1.943750   -1.242806
     43          1           0       -6.147193   -0.722032   -0.012762
 ---------------------------------------------------------------------
 Rotational constants (GHZ):           0.5382956           0.1509054           0.1234366
 Standard basis: def2TZVP (5D, 7F)
 There are   948 symmetry adapted cartesian basis functions of A   symmetry.
 There are   833 symmetry adapted basis functions of A   symmetry.
   833 basis functions,  1333 primitive gaussians,   948 cartesian basis functions
    79 alpha electrons       79 beta electrons
       nuclear repulsion energy      1747.0737311866 Hartrees.
 NAtoms=   43 NActive=   43 NUniq=   43 SFac= 1.00D+00 NAtFMM=   60 NAOKFM=F Big=F
 Integral buffers will be    131072 words long.
 Raffenetti 2 integral format.
 Two-electron integral symmetry is turned on.
 One-electron integrals computed using PRISM.
   1 Symmetry operations used in ECPInt.
 ECPInt:  NShTT=   55611 NPrTT=  169056 LenC2=   47281 LenP2D=  101876.
 LDataN:  DoStor=T MaxTD1= 6 Len=  172
 Number of processors reduced to  28 by ecpmxn.
 NBasis=   833 RedAO= T EigKep=  4.41D-06  NBF=   833
 NBsUse=   833 1.00D-06 EigRej= -1.00D+00 NBFU=   833
 ExpMin= 9.52D-02 ExpMax= 1.36D+04 ExpMxC= 4.63D+02 IAcc=3 IRadAn=         5 AccDes= 0.00D+00
 Harris functional with IExCor= 1009 and IRadAn=       5 diagonalized for initial guess.
 HarFok:  IExCor= 1009 AccDes= 0.00D+00 IRadAn=         5 IDoV= 1 UseB2=F ITyADJ=14
 ICtDFT=  3500011 ScaDFX=  1.000000  1.000000  1.000000  1.000000
 FoFCou: FMM=F IPFlag=           0 FMFlag=      100000 FMFlg1=           0
         NFxFlg=           0 DoJE=T BraDBF=F KetDBF=T FulRan=T
         wScrn=  0.000000 ICntrl=       500 IOpCl=  0 I1Cent=   200000004 NGrid=           0
         NMat0=    1 NMatS0=      1 NMatT0=    0 NMatD0=    1 NMtDS0=    0 NMtDT0=    0
 Petite list used in FoFCou.
 Requested convergence on RMS density matrix=1.00D-08 within 128 cycles.
 Requested convergence on MAX density matrix=1.00D-06.
 Requested convergence on             energy=1.00D-06.
 No special actions if energy rises.
 Integral accuracy reduced to 1.0D-05 until final iterations.
 Problem detected with inexpensive integrals.
 Switching to full accuracy and repeating last cycle.
 SCF Done:  E(RM062X) =  -888.452028601     A.U. after   14 cycles
            NFock= 14  Conv=0.43D-08     -V/T= 2.0053

 **********************************************************************

            Population analysis using the SCF Density.

 **********************************************************************

 Orbital symmetries:
       Occupied  (A) (A) (A) (A) (A) (A) (A) (A) (A) (A) (A) (A)
                 (A) (A) (A) (A) (A) (A) (A) (A) (A) (A) (A) (A)
                 (A) (A) (A) (A) (A) (A) (A) (A) (A) (A) (A) (A)
                 (A) (A) (A) (A) (A) (A) (A) (A) (A) (A) (A) (A)
                 (A) (A) (A) (A) (A) (A) (A) (A) (A) (A) (A) (A)
                 (A) (A) (A) (A) (A) (A) (A) (A) (A) (A) (A) (A)
                 (A) (A) (A) (A) (A) (A) (A)
       Virtual   (A) (A) (A) (A) (A) (A) (A) (A) (A) (A) (A) (A)
                 (A) (A) (A) (A) (A) (A) (A) (A) (A) (A) (A) (A)
                 (A) (A) (A) (A) (A) (A) (A) (A) (A) (A) (A) (A)
                 (A) (A) (A) (A) (A) (A) (A) (A) (A) (A) (A) (A)
                 (A) (A) (A) (A) (A) (A) (A) (A) (A) (A) (A) (A)
                 (A) (A) (A) (A) (A) (A) (A) (A) (A) (A) (A) (A)
                 (A) (A) (A) (A) (A) (A) (A) (A) (A) (A) (A) (A)
                 (A) (A) (A) (A) (A) (A) (A) (A) (A) (A) (A) (A)
                 (A) (A) (A) (A) (A) (A) (A) (A) (A) (A) (A) (A)
                 (A) (A) (A) (A) (A) (A) (A) (A) (A) (A) (A) (A)
                 (A) (A) (A) (A) (A) (A) (A) (A) (A) (A) (A) (A)
                 (A) (A) (A) (A) (A) (A) (A) (A) (A) (A) (A) (A)
                 (A) (A) (A) (A) (A) (A) (A) (A) (A) (A) (A) (A)
                 (A) (A) (A) (A) (A) (A) (A) (A) (A) (A) (A) (A)
                 (A) (A) (A) (A) (A) (A) (A) (A) (A) (A) (A) (A)
                 (A) (A) (A) (A) (A) (A) (A) (A) (A) (A) (A) (A)
                 (A) (A) (A) (A) (A) (A) (A) (A) (A) (A) (A) (A)
                 (A) (A) (A) (A) (A) (A) (A) (A) (A) (A) (A) (A)
                 (A) (A) (A) (A) (A) (A) (A) (A) (A) (A) (A) (A)
                 (A) (A) (A) (A) (A) (A) (A) (A) (A) (A) (A) (A)
                 (A) (A) (A) (A) (A) (A) (A) (A) (A) (A) (A) (A)
                 (A) (A) (A) (A) (A) (A) (A) (A) (A) (A) (A) (A)
                 (A) (A) (A) (A) (A) (A) (A) (A) (A) (A) (A) (A)
                 (A) (A) (A) (A) (A) (A) (A) (A) (A) (A) (A) (A)
                 (A) (A) (A) (A) (A) (A) (A) (A) (A) (A) (A) (A)
                 (A) (A) (A) (A) (A) (A) (A) (A) (A) (A) (A) (A)
                 (A) (A) (A) (A) (A) (A) (A) (A) (A) (A) (A) (A)
                 (A) (A) (A) (A) (A) (A) (A) (A) (A) (A) (A) (A)
                 (A) (A) (A) (A) (A) (A) (A) (A) (A) (A) (A) (A)
                 (A) (A) (A) (A) (A) (A) (A) (A) (A) (A) (A) (A)
                 (A) (A) (A) (A) (A) (A) (A) (A) (A) (A) (A) (A)
                 (A) (A) (A) (A) (A) (A) (A) (A) (A) (A) (A) (A)
                 (A) (A) (A) (A) (A) (A) (A) (A) (A) (A) (A) (A)
                 (A) (A) (A) (A) (A) (A) (A) (A) (A) (A) (A) (A)
                 (A) (A) (A) (A) (A) (A) (A) (A) (A) (A) (A) (A)
                 (A) (A) (A) (A) (A) (A) (A) (A) (A) (A) (A) (A)
                 (A) (A) (A) (A) (A) (A) (A) (A) (A) (A) (A) (A)
                 (A) (A) (A) (A) (A) (A) (A) (A) (A) (A) (A) (A)
                 (A) (A) (A) (A) (A) (A) (A) (A) (A) (A) (A) (A)
                 (A) (A) (A) (A) (A) (A) (A) (A) (A) (A) (A) (A)
                 (A) (A) (A) (A) (A) (A) (A) (A) (A) (A) (A) (A)
                 (A) (A) (A) (A) (A) (A) (A) (A) (A) (A) (A) (A)
                 (A) (A) (A) (A) (A) (A) (A) (A) (A) (A) (A) (A)
                 (A) (A) (A) (A) (A) (A) (A) (A) (A) (A) (A) (A)
                 (A) (A) (A) (A) (A) (A) (A) (A) (A) (A) (A) (A)
                 (A) (A) (A) (A) (A) (A) (A) (A) (A) (A) (A) (A)
                 (A) (A) (A) (A) (A) (A) (A) (A) (A) (A) (A) (A)
                 (A) (A) (A) (A) (A) (A) (A) (A) (A) (A) (A) (A)
                 (A) (A) (A) (A) (A) (A) (A) (A) (A) (A) (A) (A)
                 (A) (A) (A) (A) (A) (A) (A) (A) (A) (A) (A) (A)
                 (A) (A) (A) (A) (A) (A) (A) (A) (A) (A) (A) (A)
                 (A) (A) (A) (A) (A) (A) (A) (A) (A) (A) (A) (A)
                 (A) (A) (A) (A) (A) (A) (A) (A) (A) (A) (A) (A)
                 (A) (A) (A) (A) (A) (A) (A) (A) (A) (A) (A) (A)
                 (A) (A) (A) (A) (A) (A) (A) (A) (A) (A) (A) (A)
                 (A) (A) (A) (A) (A) (A) (A) (A) (A) (A) (A) (A)
                 (A) (A) (A) (A) (A) (A) (A) (A) (A) (A) (A) (A)
                 (A) (A) (A) (A) (A) (A) (A) (A) (A) (A) (A) (A)
                 (A) (A) (A) (A) (A) (A) (A) (A) (A) (A) (A) (A)
                 (A) (A) (A) (A) (A) (A) (A) (A) (A) (A) (A) (A)
                 (A) (A) (A) (A) (A) (A) (A) (A) (A) (A) (A) (A)
                 (A) (A) (A) (A) (A) (A) (A) (A) (A) (A) (A) (A)
                 (A) (A) (A) (A) (A) (A) (A) (A) (A) (A)
 The electronic state is 1-A.
 Alpha  occ. eigenvalues --  -10.55869 -10.55544 -10.55454 -10.54530 -10.54515
 Alpha  occ. eigenvalues --  -10.54439 -10.54419 -10.54364 -10.54350 -10.54329
 Alpha  occ. eigenvalues --  -10.54291 -10.54287 -10.54270 -10.54254 -10.54243
 Alpha  occ. eigenvalues --  -10.54180 -10.54157 -10.54126 -10.54059 -10.53348
 Alpha  occ. eigenvalues --  -10.53332 -10.53077 -10.53038  -1.00096  -0.96985
 Alpha  occ. eigenvalues --   -0.94663  -0.94165  -0.89749  -0.86450  -0.84624
 Alpha  occ. eigenvalues --   -0.84553  -0.83632  -0.80823  -0.79980  -0.79133
 Alpha  occ. eigenvalues --   -0.72777  -0.70696  -0.69187  -0.67618  -0.66334
 Alpha  occ. eigenvalues --   -0.65978  -0.64989  -0.63025  -0.59842  -0.58877
 Alpha  occ. eigenvalues --   -0.56185  -0.55873  -0.54332  -0.54050  -0.52555
 Alpha  occ. eigenvalues --   -0.51589  -0.50958  -0.50521  -0.49490  -0.49055
 Alpha  occ. eigenvalues --   -0.48926  -0.48336  -0.47666  -0.47424  -0.44675
 Alpha  occ. eigenvalues --   -0.44294  -0.43855  -0.42427  -0.41789  -0.40933
 Alpha  occ. eigenvalues --   -0.40511  -0.40025  -0.39844  -0.39677  -0.39364
 Alpha  occ. eigenvalues --   -0.38802  -0.37792  -0.36907  -0.34961  -0.31010
 Alpha  occ. eigenvalues --   -0.30799  -0.30134  -0.29791  -0.25879
 Alpha virt. eigenvalues --   -0.01954   0.00703   0.01877   0.02693   0.03248
 Alpha virt. eigenvalues --    0.05840   0.07357   0.07685   0.08659   0.08853
 Alpha virt. eigenvalues --    0.09392   0.10253   0.10422   0.10782   0.11329
 Alpha virt. eigenvalues --    0.12144   0.12606   0.13004   0.13467   0.13825
 Alpha virt. eigenvalues --    0.14443   0.14793   0.15146   0.15589   0.16143
 Alpha virt. eigenvalues --    0.16477   0.17730   0.18118   0.18659   0.19188
 Alpha virt. eigenvalues --    0.19764   0.20225   0.20705   0.21537   0.21982
 Alpha virt. eigenvalues --    0.22330   0.22503   0.22889   0.23138   0.23314
 Alpha virt. eigenvalues --    0.23783   0.24221   0.24595   0.24945   0.25465
 Alpha virt. eigenvalues --    0.25676   0.25783   0.26373   0.26640   0.26692
 Alpha virt. eigenvalues --    0.27124   0.27536   0.27655   0.28017   0.29327
 Alpha virt. eigenvalues --    0.30129   0.30513   0.30726   0.31287   0.31601
 Alpha virt. eigenvalues --    0.31831   0.32618   0.32925   0.33533   0.33753
 Alpha virt. eigenvalues --    0.34363   0.34921   0.35520   0.36420   0.36851
 Alpha virt. eigenvalues --    0.37066   0.37235   0.37823   0.38097   0.38550
 Alpha virt. eigenvalues --    0.39077   0.39475   0.39891   0.40237   0.40702
 Alpha virt. eigenvalues --    0.41324   0.41468   0.41928   0.42374   0.42531
 Alpha virt. eigenvalues --    0.42819   0.43283   0.43381   0.43933   0.44262
 Alpha virt. eigenvalues --    0.44669   0.44686   0.44984   0.45189   0.45396
 Alpha virt. eigenvalues --    0.45782   0.46202   0.46455   0.46686   0.46951
 Alpha virt. eigenvalues --    0.47235   0.47567   0.48001   0.48352   0.48947
 Alpha virt. eigenvalues --    0.49329   0.49486   0.49830   0.50467   0.50747
 Alpha virt. eigenvalues --    0.51113   0.51370   0.52493   0.52608   0.52815
 Alpha virt. eigenvalues --    0.53188   0.53632   0.54034   0.54582   0.55117
 Alpha virt. eigenvalues --    0.55406   0.56448   0.56816   0.57164   0.57648
 Alpha virt. eigenvalues --    0.58151   0.59332   0.59407   0.59870   0.60820
 Alpha virt. eigenvalues --    0.61535   0.62462   0.63497   0.64056   0.64473
 Alpha virt. eigenvalues --    0.65429   0.66286   0.67206   0.67916   0.68097
 Alpha virt. eigenvalues --    0.69029   0.69489   0.70146   0.70603   0.70693
 Alpha virt. eigenvalues --    0.71319   0.71898   0.72467   0.72724   0.73219
 Alpha virt. eigenvalues --    0.74061   0.74686   0.75050   0.75587   0.75807
 Alpha virt. eigenvalues --    0.76784   0.77086   0.77429   0.78024   0.78488
 Alpha virt. eigenvalues --    0.78918   0.79258   0.80345   0.80645   0.81101
 Alpha virt. eigenvalues --    0.82072   0.82679   0.83060   0.83866   0.83943
 Alpha virt. eigenvalues --    0.84932   0.85472   0.86561   0.86945   0.88042
 Alpha virt. eigenvalues --    0.88462   0.88882   0.89540   0.90124   0.90911
 Alpha virt. eigenvalues --    0.91012   0.92030   0.92496   0.93143   0.93793
 Alpha virt. eigenvalues --    0.94449   0.94666   0.95259   0.95497   0.96230
 Alpha virt. eigenvalues --    0.96887   0.97443   0.98218   0.98685   0.99943
 Alpha virt. eigenvalues --    1.00369   1.01793   1.02313   1.03676   1.04063
 Alpha virt. eigenvalues --    1.04539   1.04724   1.06044   1.06150   1.06839
 Alpha virt. eigenvalues --    1.07582   1.07972   1.08472   1.08950   1.09944
 Alpha virt. eigenvalues --    1.10259   1.12296   1.12554   1.13359   1.14316
 Alpha virt. eigenvalues --    1.14964   1.15021   1.16424   1.17304   1.17388
 Alpha virt. eigenvalues --    1.18145   1.19302   1.19947   1.20899   1.21545
 Alpha virt. eigenvalues --    1.22100   1.22265   1.23035   1.23790   1.24842
 Alpha virt. eigenvalues --    1.25391   1.25737   1.26406   1.26631   1.27667
 Alpha virt. eigenvalues --    1.28063   1.28573   1.29049   1.29786   1.30412
 Alpha virt. eigenvalues --    1.30772   1.30956   1.31504   1.32378   1.32791
 Alpha virt. eigenvalues --    1.33718   1.33995   1.34945   1.35486   1.37210
 Alpha virt. eigenvalues --    1.37953   1.38050   1.38452   1.40207   1.40742
 Alpha virt. eigenvalues --    1.41230   1.42122   1.43560   1.43987   1.45223
 Alpha virt. eigenvalues --    1.45536   1.46234   1.47403   1.47594   1.48428
 Alpha virt. eigenvalues --    1.49141   1.49505   1.50180   1.51772   1.52583
 Alpha virt. eigenvalues --    1.53228   1.53836   1.54238   1.55663   1.56086
 Alpha virt. eigenvalues --    1.56614   1.57360   1.57535   1.58067   1.58757
 Alpha virt. eigenvalues --    1.59550   1.60302   1.60796   1.61560   1.61751
 Alpha virt. eigenvalues --    1.62770   1.63341   1.63842   1.64498   1.64736
 Alpha virt. eigenvalues --    1.65932   1.65989   1.67360   1.67733   1.68128
 Alpha virt. eigenvalues --    1.69388   1.69859   1.70953   1.71274   1.72007
 Alpha virt. eigenvalues --    1.72303   1.73366   1.74183   1.74710   1.75565
 Alpha virt. eigenvalues --    1.75945   1.76079   1.76507   1.77295   1.77847
 Alpha virt. eigenvalues --    1.78194   1.78811   1.79657   1.80446   1.80909
 Alpha virt. eigenvalues --    1.81101   1.82765   1.84481   1.84893   1.85697
 Alpha virt. eigenvalues --    1.87446   1.87785   1.89363   1.89988   1.90418
 Alpha virt. eigenvalues --    1.90921   1.92070   1.92593   1.93202   1.93601
 Alpha virt. eigenvalues --    1.95867   1.96290   1.96818   1.98077   1.99337
 Alpha virt. eigenvalues --    1.99643   2.00948   2.02266   2.03286   2.04538
 Alpha virt. eigenvalues --    2.05140   2.05958   2.06301   2.06634   2.07311
 Alpha virt. eigenvalues --    2.08182   2.09143   2.09657   2.10036   2.10516
 Alpha virt. eigenvalues --    2.11648   2.12407   2.13075   2.14818   2.15387
 Alpha virt. eigenvalues --    2.17076   2.17666   2.18166   2.19678   2.20182
 Alpha virt. eigenvalues --    2.20828   2.22360   2.23716   2.24564   2.24886
 Alpha virt. eigenvalues --    2.25202   2.25694   2.26212   2.26355   2.27105
 Alpha virt. eigenvalues --    2.27687   2.28218   2.30962   2.31253   2.31650
 Alpha virt. eigenvalues --    2.32627   2.34707   2.35232   2.36987   2.37714
 Alpha virt. eigenvalues --    2.38506   2.40225   2.40374   2.42307   2.42349
 Alpha virt. eigenvalues --    2.43490   2.44285   2.45316   2.46935   2.47381
 Alpha virt. eigenvalues --    2.47817   2.48696   2.49446   2.49897   2.50825
 Alpha virt. eigenvalues --    2.51040   2.52149   2.53520   2.53550   2.54798
 Alpha virt. eigenvalues --    2.55168   2.55863   2.57035   2.57702   2.58443
 Alpha virt. eigenvalues --    2.59330   2.60989   2.61214   2.61677   2.62006
 Alpha virt. eigenvalues --    2.62802   2.63181   2.64243   2.64457   2.64741
 Alpha virt. eigenvalues --    2.65476   2.65870   2.66479   2.66673   2.67040
 Alpha virt. eigenvalues --    2.67559   2.67743   2.68423   2.68952   2.69065
 Alpha virt. eigenvalues --    2.69950   2.70383   2.70594   2.70919   2.72391
 Alpha virt. eigenvalues --    2.72916   2.73168   2.73259   2.73636   2.74506
 Alpha virt. eigenvalues --    2.75279   2.75777   2.76233   2.76758   2.77108
 Alpha virt. eigenvalues --    2.77577   2.77846   2.79027   2.79157   2.80069
 Alpha virt. eigenvalues --    2.80239   2.80734   2.82019   2.82597   2.83441
 Alpha virt. eigenvalues --    2.83909   2.84361   2.84570   2.84991   2.85518
 Alpha virt. eigenvalues --    2.86429   2.86954   2.87279   2.87955   2.88513
 Alpha virt. eigenvalues --    2.88673   2.89733   2.90019   2.90456   2.91460
 Alpha virt. eigenvalues --    2.92631   2.93985   2.94775   2.95044   2.95831
 Alpha virt. eigenvalues --    2.96282   2.96670   2.97146   2.98661   3.00239
 Alpha virt. eigenvalues --    3.00962   3.01097   3.01954   3.02689   3.03602
 Alpha virt. eigenvalues --    3.04179   3.04282   3.04596   3.05257   3.06326
 Alpha virt. eigenvalues --    3.06591   3.07211   3.08150   3.08335   3.09524
 Alpha virt. eigenvalues --    3.09641   3.10276   3.10724   3.11807   3.12257
 Alpha virt. eigenvalues --    3.12474   3.13661   3.14382   3.15648   3.15765
 Alpha virt. eigenvalues --    3.16336   3.16588   3.17174   3.17846   3.17991
 Alpha virt. eigenvalues --    3.19140   3.19424   3.19673   3.20241   3.20582
 Alpha virt. eigenvalues --    3.21258   3.21616   3.22303   3.22734   3.23933
 Alpha virt. eigenvalues --    3.25025   3.25717   3.25896   3.26301   3.27342
 Alpha virt. eigenvalues --    3.27410   3.27804   3.28566   3.29072   3.29658
 Alpha virt. eigenvalues --    3.30380   3.30913   3.31612   3.31927   3.32359
 Alpha virt. eigenvalues --    3.33031   3.33423   3.34046   3.34586   3.35444
 Alpha virt. eigenvalues --    3.35870   3.36414   3.37133   3.37397   3.37968
 Alpha virt. eigenvalues --    3.38541   3.39018   3.39262   3.39588   3.40140
 Alpha virt. eigenvalues --    3.40925   3.41798   3.42014   3.42444   3.43164
 Alpha virt. eigenvalues --    3.44055   3.44405   3.44711   3.46189   3.46217
 Alpha virt. eigenvalues --    3.46893   3.47269   3.48138   3.48605   3.49187
 Alpha virt. eigenvalues --    3.49722   3.50176   3.51351   3.51468   3.52404
 Alpha virt. eigenvalues --    3.53137   3.53545   3.53789   3.54225   3.54642
 Alpha virt. eigenvalues --    3.55515   3.56006   3.56315   3.57308   3.58105
 Alpha virt. eigenvalues --    3.58522   3.58985   3.59256   3.59931   3.60546
 Alpha virt. eigenvalues --    3.61460   3.62508   3.63116   3.63989   3.65014
 Alpha virt. eigenvalues --    3.65635   3.66620   3.67114   3.68089   3.69371
 Alpha virt. eigenvalues --    3.70507   3.70945   3.72529   3.74143   3.75649
 Alpha virt. eigenvalues --    3.77077   3.77393   3.77853   3.78822   3.79874
 Alpha virt. eigenvalues --    3.80245   3.81363   3.83366   3.84821   3.86433
 Alpha virt. eigenvalues --    3.87497   3.89570   3.89970   3.90384   3.92668
 Alpha virt. eigenvalues --    3.94047   3.95164   3.95739   3.95906   3.96580
 Alpha virt. eigenvalues --    3.98732   3.99971   4.00781   4.03148   4.03334
 Alpha virt. eigenvalues --    4.04434   4.04550   4.05575   4.05835   4.06801
 Alpha virt. eigenvalues --    4.07099   4.07451   4.07982   4.08707   4.10787
 Alpha virt. eigenvalues --    4.11880   4.13139   4.13576   4.14317   4.14728
 Alpha virt. eigenvalues --    4.15087   4.16837   4.17844   4.18020   4.18313
 Alpha virt. eigenvalues --    4.18690   4.19309   4.19554   4.20001   4.20686
 Alpha virt. eigenvalues --    4.21072   4.21543   4.22582   4.22869   4.23724
 Alpha virt. eigenvalues --    4.24862   4.26587   4.27297   4.28191   4.28662
 Alpha virt. eigenvalues --    4.29377   4.29930   4.31081   4.31900   4.33938
 Alpha virt. eigenvalues --    4.34605   4.35009   4.36268   4.37898   4.38389
 Alpha virt. eigenvalues --    4.39581   4.41268   4.44292   4.45204   4.46590
 Alpha virt. eigenvalues --    4.46805   4.49401   4.50264   4.51563   4.52408
 Alpha virt. eigenvalues --    4.53998   4.55670   4.56471   4.56796   4.58304
 Alpha virt. eigenvalues --    4.61345   4.62247   4.62660   4.64204   4.65737
 Alpha virt. eigenvalues --    4.67317   4.67382   4.71444   4.71831   4.73554
 Alpha virt. eigenvalues --    4.75704   4.76226   4.77348   4.79581   4.82826
 Alpha virt. eigenvalues --    4.83432   4.84174   4.84997   4.86084   4.87077
 Alpha virt. eigenvalues --    4.90448   4.90626   4.92354   4.92756   4.95687
 Alpha virt. eigenvalues --    4.96765   4.99348   5.02746   5.05242   5.08092
 Alpha virt. eigenvalues --    5.09743   5.13586   5.15288   5.18069   5.20507
 Alpha virt. eigenvalues --    5.23402   5.28735   5.30591   5.32487   5.34096
 Alpha virt. eigenvalues --    5.37346   5.42540   5.46925   5.49966   5.53631
 Alpha virt. eigenvalues --    5.56220   5.64524   5.68473   5.70933   5.73697
 Alpha virt. eigenvalues --    6.03308  22.16767  22.36168  22.53069  22.62172
 Alpha virt. eigenvalues --   22.64212  22.68757  22.71367  22.73040  22.73981
 Alpha virt. eigenvalues --   22.75840  22.79294  22.81890  22.84037  22.89368
 Alpha virt. eigenvalues --   22.92619  22.97246  23.06599  23.15937  23.16600
 Alpha virt. eigenvalues --   23.24899  23.40576  23.75703  23.92656
          Condensed to atoms (all electrons):
               1          2          3          4          5          6
     1  C    5.142835   0.513477  -0.020139  -0.100113   0.390645  -0.036958
     2  C    0.513477   4.887282   0.517999  -0.021930  -0.027191   0.411735
     3  C   -0.020139   0.517999   4.869456   0.510047   0.002644  -0.033586
     4  C   -0.100113  -0.021930   0.510047   5.143479   0.000334   0.004301
     5  H    0.390645  -0.027191   0.002644   0.000334   0.512890  -0.003708
     6  H   -0.036958   0.411735  -0.033586   0.004301  -0.003708   0.513450
     7  H    0.001223   0.001659  -0.012711   0.388798   0.000079  -0.000318
     8  C    0.501366  -0.058606  -0.047343  -0.040427  -0.032394   0.005743
     9  C   -0.054043  -0.050136  -0.058042   0.488635   0.009826   0.001128
    10  C    0.027147  -0.000895  -0.000603   0.027129   0.002179   0.000004
    11  C   -0.131424   0.004751  -0.005526   0.024083   0.001349   0.000116
    12  C   -0.019745   0.000508  -0.000253   0.000095   0.001773   0.000029
    13  C    0.000283  -0.000086   0.000013   0.000014  -0.000211   0.000000
    14  C    0.000143  -0.000009   0.000002   0.000108   0.000035  -0.000000
    15  C   -0.002388   0.000145  -0.000074  -0.000508  -0.000068   0.000001
    16  H    0.002437  -0.000278   0.000029  -0.000060   0.003812   0.000008
    17  H    0.000010   0.000001  -0.000000   0.000000   0.000010   0.000000
    18  H    0.000049  -0.000003   0.000003  -0.000026   0.000000   0.000000
    19  C   -0.000021   0.000010  -0.000083   0.000881  -0.000001  -0.000000
    20  C    0.000220   0.000072   0.000129  -0.018168  -0.000001   0.000000
    21  C    0.026034  -0.003521   0.010112  -0.125985  -0.000890   0.000056
    22  C   -0.000330  -0.000046   0.000497  -0.009380   0.000002  -0.000003
    23  C   -0.000017   0.000011  -0.000041  -0.004271  -0.000001   0.000001
    24  H   -0.000330   0.000032  -0.000444  -0.003932   0.000001  -0.000002
    25  H    0.000032  -0.000030   0.000034  -0.000058   0.000000   0.000000
    26  H   -0.000016  -0.000006   0.000005   0.000787  -0.000000   0.000000
    27  H   -0.000176   0.000001  -0.000455  -0.007075   0.000000  -0.000002
    28  H   -0.000002   0.000000  -0.000002  -0.000050   0.000000  -0.000000
    29  H    0.000003  -0.000001   0.000007   0.000139   0.000000  -0.000000
    30  H   -0.000009   0.000013  -0.000026   0.002120   0.000000  -0.000000
    31  H    0.000001  -0.000000   0.000006   0.000102   0.000000  -0.000000
    32  C   -0.000000  -0.000000  -0.000000  -0.000000   0.000000  -0.000000
    33  C    0.000000  -0.000000  -0.000000   0.000000  -0.000000   0.000000
    34  C    0.000001   0.000000  -0.000000   0.000000   0.000000   0.000000
    35  C   -0.000013  -0.000000  -0.000000   0.000005   0.000001   0.000000
    36  C    0.000001  -0.000000   0.000000   0.000000   0.000000   0.000000
    37  C   -0.000000   0.000000  -0.000000  -0.000000  -0.000000   0.000000
    38  H    0.000000  -0.000000  -0.000000  -0.000000   0.000000   0.000000
    39  H    0.000000  -0.000000   0.000000   0.000000   0.000000   0.000000
    40  H    0.000000  -0.000000  -0.000000  -0.000000   0.000000   0.000000
    41  H    0.000000  -0.000000  -0.000000  -0.000000   0.000000   0.000000
    42  H    0.000000  -0.000000   0.000000   0.000000   0.000000   0.000000
    43  H    0.003656  -0.034159   0.411456  -0.036034  -0.000324  -0.003968
               7          8          9         10         11         12
     1  C    0.001223   0.501366  -0.054043   0.027147  -0.131424  -0.019745
     2  C    0.001659  -0.058606  -0.050136  -0.000895   0.004751   0.000508
     3  C   -0.012711  -0.047343  -0.058042  -0.000603  -0.005526  -0.000253
     4  C    0.388798  -0.040427   0.488635   0.027129   0.024083   0.000095
     5  H    0.000079  -0.032394   0.009826   0.002179   0.001349   0.001773
     6  H   -0.000318   0.005743   0.001128   0.000004   0.000116   0.000029
     7  H    0.492638   0.004066  -0.046160   0.001068  -0.001025   0.000033
     8  C    0.004066   5.147187   0.327613  -0.128281   0.325761  -0.139627
     9  C   -0.046160   0.327613   5.369667  -0.003517  -0.099991   0.023353
    10  C    0.001068  -0.128281  -0.003517   5.541075   0.304090  -0.013433
    11  C   -0.001025   0.325761  -0.099991   0.304090   5.144685   0.491050
    12  C    0.000033  -0.139627   0.023353  -0.013433   0.491050   5.176155
    13  C   -0.000004   0.008540  -0.002037  -0.059468  -0.059572   0.484885
    14  C    0.000005  -0.009108   0.002177  -0.008671  -0.052615  -0.018763
    15  C    0.000002   0.036817   0.029321   0.241092   0.012315  -0.145143
    16  H    0.000001  -0.001675   0.001766   0.011814  -0.027251   0.385685
    17  H    0.000000   0.000164   0.000029  -0.000727   0.003730  -0.023519
    18  H   -0.000001  -0.000693   0.000511  -0.013600  -0.005354   0.002072
    19  C   -0.000114  -0.002322   0.016720   0.002506   0.001250  -0.000081
    20  C   -0.000842   0.019566  -0.040155  -0.015601   0.002994   0.000123
    21  C    0.013663  -0.019560   0.096067   0.129416  -0.085624   0.029062
    22  C   -0.000458   0.000970  -0.014016  -0.021120   0.024372  -0.000424
    23  C   -0.002199   0.000616   0.001790   0.015263  -0.002508   0.000003
    24  H    0.001886   0.007721  -0.010172   0.002930  -0.001218  -0.000057
    25  H   -0.000118   0.001092  -0.008178  -0.007077   0.007240  -0.000016
    26  H   -0.000066  -0.001290   0.001944  -0.009665   0.008258  -0.000287
    27  H    0.000622   0.008035  -0.012252  -0.008577   0.000958   0.000056
    28  H    0.000034   0.000132   0.001315  -0.005095  -0.000739  -0.000025
    29  H    0.000001   0.000037  -0.001650  -0.000586  -0.000057   0.000002
    30  H    0.001162  -0.000591  -0.003578   0.001499   0.000159  -0.000005
    31  H    0.000016  -0.000039  -0.000349  -0.001802   0.000035   0.000004
    32  C    0.000000  -0.000000   0.000000  -0.000082   0.000005  -0.000026
    33  C   -0.000000   0.000000   0.000000   0.000185  -0.000017  -0.000013
    34  C    0.000000   0.000045  -0.000018  -0.000316   0.000165   0.001990
    35  C    0.000000  -0.001343   0.000713  -0.002809   0.005352   0.008811
    36  C   -0.000000   0.000033  -0.000028   0.008449  -0.000314  -0.000984
    37  C   -0.000000   0.000001  -0.000000  -0.000285   0.000001   0.000079
    38  H    0.000000   0.000000  -0.000000  -0.000000  -0.000000  -0.000000
    39  H    0.000000   0.000000  -0.000000   0.000002  -0.000000   0.000001
    40  H   -0.000000   0.000013  -0.000002  -0.000012  -0.000017   0.000663
    41  H   -0.000000   0.000019  -0.000019   0.002934  -0.000083  -0.000157
    42  H   -0.000000   0.000000  -0.000000   0.000009  -0.000001   0.000000
    43  H   -0.003445   0.002064   0.005012   0.000012   0.000144  -0.000001
              13         14         15         16         17         18
     1  C    0.000283   0.000143  -0.002388   0.002437   0.000010   0.000049
     2  C   -0.000086  -0.000009   0.000145  -0.000278   0.000001  -0.000003
     3  C    0.000013   0.000002  -0.000074   0.000029  -0.000000   0.000003
     4  C    0.000014   0.000108  -0.000508  -0.000060   0.000000  -0.000026
     5  H   -0.000211   0.000035  -0.000068   0.003812   0.000010   0.000000
     6  H    0.000000  -0.000000   0.000001   0.000008   0.000000   0.000000
     7  H   -0.000004   0.000005   0.000002   0.000001   0.000000  -0.000001
     8  C    0.008540  -0.009108   0.036817  -0.001675   0.000164  -0.000693
     9  C   -0.002037   0.002177   0.029321   0.001766   0.000029   0.000511
    10  C   -0.059468  -0.008671   0.241092   0.011814  -0.000727  -0.013600
    11  C   -0.059572  -0.052615   0.012315  -0.027251   0.003730  -0.005354
    12  C    0.484885  -0.018763  -0.145143   0.385685  -0.023519   0.002072
    13  C    5.013347   0.507430  -0.006884  -0.022495   0.397284   0.001819
    14  C    0.507430   4.943103   0.413810   0.002097  -0.037755   0.005896
    15  C   -0.006884   0.413810   5.640929  -0.001540   0.010330   0.338784
    16  H   -0.022495   0.002097  -0.001540   0.508805  -0.002891   0.000069
    17  H    0.397284  -0.037755   0.010330  -0.002891   0.493753  -0.000240
    18  H    0.001819   0.005896   0.338784   0.000069  -0.000240   0.451060
    19  C    0.000033   0.000356  -0.003287  -0.000002   0.000001  -0.003031
    20  C   -0.000393   0.001192  -0.012763   0.000002  -0.000006  -0.000508
    21  C   -0.000168   0.015571  -0.182554  -0.000527   0.000012   0.020388
    22  C    0.000156  -0.000738  -0.012177  -0.000006   0.000000  -0.000822
    23  C    0.000010  -0.000041   0.000208  -0.000001  -0.000000  -0.000087
    24  H    0.000017  -0.000057   0.001048  -0.000001   0.000000  -0.000015
    25  H   -0.000114  -0.000618  -0.008682   0.000002  -0.000003   0.000687
    26  H   -0.000019   0.000084  -0.007048   0.000001  -0.000003   0.001243
    27  H   -0.000021  -0.000062  -0.000453   0.000000   0.000000  -0.000130
    28  H    0.000045   0.000342   0.002878   0.000000   0.000000   0.001271
    29  H   -0.000001   0.000002   0.000185   0.000000  -0.000000   0.000043
    30  H    0.000001   0.000008  -0.000035  -0.000000   0.000000   0.000038
    31  H   -0.000001  -0.000004   0.000157   0.000000  -0.000000   0.000007
    32  C    0.000057  -0.004742   0.000169   0.000000  -0.000077  -0.000027
    33  C    0.001433   0.007105  -0.000776  -0.000001   0.000725  -0.000157
    34  C   -0.001474  -0.077357   0.007503   0.000000   0.003389  -0.000141
    35  C   -0.081417   0.251746  -0.064352  -0.000189  -0.001983  -0.000597
    36  C    0.008902  -0.078834  -0.004149   0.000040   0.000367   0.000754
    37  C   -0.000745   0.005643   0.001210  -0.000001  -0.000114   0.000693
[...]
 0000270,0.00000157,-0.02024568,0.02276754,-0.00132278,-0.04137085,0.04
 820327,-0.07455656,0.01552712,-0.01748597,0.00956926,0.00279050,-0.002
 18139,-0.00288687,0.00038279,-0.00037339,-0.00141583,-0.00039022,0.001
 35807,-0.00555869,0.00021183,-0.00057955,0.00099322,0.04408550,-0.0522
 0087,0.07409211,0.00000452,-0.00000372,-0.00000312,-0.00000428,-0.0000
 1165,-0.00000064,0.00000914,-0.00000645,-0.00001652,-0.00001281,0.0000
 0490,0.00000450,-0.00000204,0.00000336,0.00001164,0.00000380,-0.000001
 50,-0.00000405,0.00000150,-0.00000739,0.00000043,-0.00002192,-0.000003
 04,0.00005492,0.00002127,-0.00005092,-0.00001455,0.00001859,-0.0000925
 5,0.00017214,0.00000630,0.00004020,-0.00003590,0.00001056,-0.00038694,
 0.00018799,-0.00047198,0.00114838,0.00001211,-0.00174329,-0.00207986,-
 0.00003403,0.00037009,-0.00033273,-0.00014756,-0.00003977,0.00002752,0
 .00000835,-0.00136256,-0.00001773,0.00073009,-0.00004644,-0.00012100,-
 0.00003096,-0.00000827,-0.00001425,-0.00001687,0.00004543,-0.00001604,
 -0.00001444,-0.00003184,0.00000471,0.00002353,-0.00001679,-0.00002117,
 -0.00003613,0.00001591,0.00000413,0.00001038,-0.00001123,-0.00001942,0
 .00000302,0.00000872,0.00000779,0.00000117,-0.00000316,0.00000641,-0.0
 0000650,0.00000353,-0.00000450,0.00000476,0.00000210,0.00000781,0.0000
 0333,-0.00000265,-0.00001018,0.00000746,-0.00000347,-0.00000186,-0.000
 00134,-0.00000141,-0.00001012,0.00000703,0.00273055,0.00519635,0.00249
 201,0.00627735,-0.00406289,0.01547688,-0.05659513,0.02303637,-0.049133
 60,0.00143599,0.00373837,-0.01977970,0.00086706,0.00599892,-0.00002879
 ,-0.00079130,0.00013153,0.00023665,0.00018386,-0.00014259,0.00076297,-
 0.00188474,-0.00245001,-0.00052881,0.05156676,0.00000637,0.00000573,-0
 .00001636,-0.00000950,0.00003423,-0.00000860,-0.00002269,-0.00000074,0
 .00004044,0.00000626,-0.00003115,-0.00003260,0.00000820,-0.00000169,-0
 .00000083,-0.00000248,0.00000286,0.00000587,0.00000204,0.00000579,0.,0
 .00006791,-0.00003950,-0.00001272,-0.00002386,0.00006515,0.00001820,-0
 .00023368,-0.00004086,0.00063838,0.00008628,0.00053546,-0.00029273,0.0
 0011553,-0.00059108,-0.00051362,-0.00030601,0.00042181,0.00000864,-0.0
 0302635,-0.00044239,0.00143781,0.00039973,-0.00082304,-0.00043253,0.00
 000583,0.00000777,0.00002618,0.00026273,0.00034414,0.00013830,0.000007
 48,0.00004844,-0.00001804,-0.00000589,0.00000433,0.00001297,0.00000538
 ,-0.00000641,0.00000770,0.00001916,-0.00003787,-0.00001493,0.00000305,
 0.00001740,0.00002502,-0.00000439,-0.00000138,-0.00001079,0.00000149,0
 .00000731,-0.00000373,-0.00000868,-0.00000572,-0.00000311,0.00000176,-
 0.00000313,-0.00000304,-0.00000388,0.00000093,-0.00000209,0.00000392,-
 0.00000296,0.00000041,0.00000190,0.00000294,-0.00000414,-0.00000064,-0
 .00000123,0.00000180,-0.00000246,0.00000840,-0.00000793,0.00490273,0.0
 0247666,-0.00239886,-0.00311348,0.00750638,-0.01509260,0.02224597,-0.0
 6551675,0.06375136,0.00426740,-0.00171444,0.02166120,0.00604245,-0.000
 43452,0.00077353,0.00042594,-0.00107839,-0.00059704,-0.00006507,0.0002
 5574,-0.00076299,-0.00253194,-0.00139808,0.00025756,-0.02914435,0.0610
 2216,-0.00000139,0.00000396,0.00000227,0.00000221,-0.00000047,0.000001
 04,-0.00000053,0.00000281,0.00000110,0.00000214,-0.00000309,0.00000816
 ,-0.00000153,-0.00000059,-0.00000007,-0.00000031,-0.00000003,0.0000001
 8,-0.00000029,-0.00000141,-0.00000148,-0.00002791,-0.00002638,0.000002
 87,0.00000728,0.00000179,-0.00000503,0.00010842,-0.00000447,-0.0001545
 0,-0.00005590,-0.00013605,-0.00000117,-0.00001721,-0.00015770,0.000207
 52,0.00076382,0.00013064,-0.00019864,0.00055014,-0.00078728,-0.0001053
 4,-0.00006923,0.00036091,0.00027463,0.00005411,0.00002796,0.00004608,0
 .00068012,-0.00055469,0.00000920,0.00000680,-0.00004288,0.00000045,0.0
 0000439,-0.00000552,-0.00000800,-0.00000332,-0.00000762,-0.00000740,-0
 .00004345,0.00000260,0.00000408,-0.00000162,-0.00000615,-0.00000827,0.
 00000011,0.00000079,0.00000252,-0.00000250,-0.00000226,0.00000332,0.00
 000175,-0.00000171,-0.00000048,0.00000221,0.00000118,0.00000241,0.0000
 0041,0.00000177,0.00000173,-0.00000372,0.00000099,0.00000256,-0.000000
 62,0.00000244,0.00000193,-0.00000058,0.00000194,0.00000117,0.00000162,
 -0.00000305,0.00000115,0.00300245,-0.00285622,-0.00125268,-0.00553972,
 0.00733761,-0.01692946,-0.04934976,0.06500733,-0.31555885,-0.00020860,
 0.00079187,-0.00424969,-0.00058400,0.00102569,0.00160756,0.00024182,-0
 .00041068,0.00055753,-0.00031251,0.00036961,-0.00089358,0.00004831,-0.
 00026606,0.00084622,0.05073606,-0.06981651,0.33607301,-0.00000476,0.00
 000800,0.00000694,-0.00000909,-0.00001259,0.00001015,0.00000697,-0.000
 00344,-0.00001352,-0.00001701,0.00000888,0.00001059,0.00000250,-0.0000
 0201,0.00000366,-0.00000071,0.00000051,0.00000198,0.00000332,-0.000004
 63,-0.00000179,0.00000077,-0.00002099,0.00004843,0.00001540,-0.0000064
 8,-0.00004911,-0.00021747,-0.00033544,0.00048981,-0.00004366,0.0002387
 9,-0.00012746,0.00013264,-0.00027646,0.00003893,-0.00002042,0.00004152
 ,0.00045089,-0.00152910,-0.00227289,-0.00007794,0.00040041,0.00063753,
 -0.00050278,-0.00003128,-0.00000728,-0.00001347,-0.00005971,-0.0000284
 4,0.00004165,0.00015231,-0.00053078,0.00004939,0.00003121,-0.00005834,
 -0.00006476,0.00000511,0.00002622,-0.00000329,0.00005589,-0.00003998,-
 0.00001534,-0.00001991,0.00002247,0.00002570,0.00001629,0.00000789,-0.
 00000458,-0.00000683,0.00000085,0.00001388,-0.00000611,-0.00000391,-0.
 00001717,0.00004952,-0.00002002,-0.00003679,-0.00001371,0.00000666,0.0
 0001070,-0.00001683,0.00000131,0.00002459,-0.00001181,0.00001042,0.000
 01471,-0.00002105,0.00000018,0.00000926,0.00000650,-0.00000760,-0.0000
 0079,0.00361372,0.00419989,0.00280488,-0.00018207,-0.00057792,0.000438
 21,0.00429759,0.00226183,-0.00076952,-0.00028571,0.00472622,0.00085050
 ,-0.16999713,0.14384686,-0.04289755,-0.00549336,0.01005338,-0.00523251
 ,-0.00034562,0.00050141,-0.00027953,-0.00068089,-0.00055309,-0.0000647
 3,0.00006712,0.00026562,0.00007480,0.17203018,-0.00000149,-0.00000866,
 0.00000231,-0.00001051,-0.00000335,0.00000177,0.00000267,-0.00000340,-
 0.00000426,-0.00001287,0.00000150,-0.00000116,0.00000459,-0.00000086,0
 .00000478,0.00000064,-0.00000051,0.00000092,0.00000254,-0.00000352,-0.
 00000167,0.00003567,0.00001095,0.00002239,0.00001097,0.00000526,-0.000
 02581,-0.00036725,0.00009058,0.00033781,0.00011658,0.00038980,-0.00019
 825,0.00023231,-0.00048945,-0.00011508,-0.00051780,0.00009036,0.000950
 27,-0.00124358,-0.00222411,-0.00157880,-0.00009790,-0.00018642,-0.0011
 1199,-0.00000719,0.00001180,0.00003034,-0.00002609,0.00000764,-0.00001
 144,0.00002568,-0.00045748,-0.00113976,0.00001925,-0.00003655,-0.00004
 652,0.00001313,0.00000112,0.00000208,-0.00004952,-0.00001686,-0.000004
 05,-0.00002454,-0.00003831,-0.00005515,0.00000093,0.00000878,0.0000076
 6,-0.00000543,-0.00000574,0.00000791,0.00000226,-0.00000051,-0.0000038
 6,0.00003017,0.00005164,0.00003505,-0.00000632,0.00001919,0.00002595,-
 0.00002100,0.00001152,0.00002096,-0.00000514,0.00000666,0.00001427,-0.
 00000524,0.00000746,0.00000470,0.00000618,-0.00001051,-0.00000114,0.00
 415521,0.00329193,-0.00294180,-0.00068608,0.00016383,-0.00002643,0.002
 48410,0.00337769,0.00158493,0.00554323,-0.00219230,0.00164859,0.143012
 88,-0.19369959,0.04774226,0.00929725,-0.00726676,0.00511766,0.00047853
 ,-0.00039327,0.00028910,-0.00053939,-0.00057733,-0.00002462,0.00030301
 ,-0.00014233,0.00002470,-0.15964642,0.20164643,-0.00000498,0.00002991,
 0.00000361,-0.00000189,0.00000724,0.00000645,-0.00001107,0.00001141,0.
 00001634,-0.00000601,-0.00001694,0.00000929,0.00000149,-0.00000513,-0.
 00000537,-0.00000486,0.00000292,0.00000735,0.00000125,0.00000414,-0.00
 000354,-0.00000845,-0.00007442,0.00000410,0.00000320,0.00004621,-0.000
 00793,0.00035407,-0.00039767,-0.00016363,-0.00005587,-0.00024573,0.000
 14410,-0.00016251,0.00017822,0.00020745,0.00026734,0.00005172,-0.00025
 397,-0.00077824,0.00065821,0.00145353,0.00019090,0.00009257,-0.0004504
 3,-0.00000829,-0.00000150,0.00000553,-0.00008264,-0.00007127,0.0000556
 1,-0.00045983,-0.00096806,-0.00073769,0.00002242,0.00000354,-0.0000150
 6,-0.00003714,-0.00000809,0.00000340,0.00000556,-0.00001664,-0.0000583
 7,0.00000127,-0.00001733,-0.00002843,-0.00001632,-0.00000118,0.0000227
 6,0.00000488,0.00002438,0.00000269,-0.00001241,-0.00001027,-0.00001287
 ,0.00003067,-0.00002803,0.00004572,-0.00000780,0.00001947,0.00001236,-
 0.00001289,-0.00001733,0.00002423,0.00000165,0.00002268,0.00000530,0.0
 0000401,0.00001680,0.00000024,-0.00000053,0.00001286,-0.00001504,0.002
 49175,-0.00223629,-0.00294940,0.00033322,-0.00033530,-0.00129417,-0.00
 038124,0.00116894,-0.00566845,-0.01961574,0.02156935,-0.00205825,-0.04
 160718,0.04759206,-0.07349022,0.01567234,-0.01742476,0.00949544,0.0007
 6383,-0.00087873,0.00027454,-0.00006905,-0.00000543,0.00012241,-0.0010
 4702,0.00121993,-0.00020762,0.04475359,-0.05025799,0.07461874,-0.00000
 230,0.00000233,0.00000106,0.00000054,0.00000416,-0.00000069,-0.0000054
 2,0.00000184,0.00000707,0.00000259,-0.00000499,-0.00000413,0.00000043,
 -0.00000060,-0.00000062,-0.00000001,0.00000066,0.00000146,0.00000106,0
 .00000090,0.00000033,0.00000066,-0.00001773,-0.00001612,-0.00000732,0.
 00001552,0.00000220,0.00001315,0.00001608,-0.00000306,-0.00000140,0.00
 002305,0.00001246,-0.00000872,-0.00008022,0.00001116,-0.00013795,0.000
 13237,0.00004589,0.00032986,-0.00036396,0.00054562,-0.00006859,-0.0000
 9322,-0.00004957,-0.00000456,0.00001023,0.00001868,0.00000194,-0.00003
 471,-0.00000427,0.00004481,0.00000539,-0.00005066,0.00000168,-0.000004
 57,-0.00000453,-0.00000115,0.00000207,0.00000024,-0.00000027,-0.000003
 67,0.00000239,0.00000044,0.00000750,0.00001053,0.00000155,0.00000091,0
 .00000163,-0.00000068,0.00000050,0.00000088,-0.00000202,0.00000078,-0.
 00000383,0.00000517,-0.00000434,-0.00000072,-0.00000345,0.00000072,0.0
 0000223,0.00000465,0.00000334,0.00000329,-0.00000131,-0.00000299,-0.00
 000178,-0.00000313,-0.00000127,-0.00000028,0.00000130,0.00000379,-0.00
 000201,0.00107778,0.00366514,-0.01995919,0.00167777,0.00646453,-0.0005
 2783,-0.00109590,0.00038044,0.00047584,0.00309143,0.00511958,0.0028250
 6,0.00626047,-0.00417913,0.01480699,-0.05637541,0.02306295,-0.04537290
 ,-0.00172723,-0.00248875,0.00019465,-0.00005368,0.00025764,-0.00098526
 ,-0.00059940,-0.00065117,-0.00006324,-0.00187448,-0.00250668,-0.000508
 40,0.04945694,-0.00000225,-0.00000095,0.00000311,-0.00000091,-0.000005
 90,0.00000260,0.00000308,-0.00000179,-0.00000636,-0.00000322,0.0000044
 8,0.00000393,0.,-0.00000022,0.00000215,0.00000037,-0.00000045,0.000000
 34,0.00000110,-0.00000288,-0.00000114,-0.00000685,-0.00000310,-0.00000
 158,0.00000961,-0.00000971,-0.00001412,0.00003097,-0.00000271,0.000004
 42,-0.00000999,0.00000386,0.00000939,0.00005946,0.00002513,-0.00002139
 ,0.00007059,-0.00015283,-0.00019253,-0.00019356,0.00044802,-0.00052568
 ,-0.00000611,-0.00003158,-0.00000865,0.00001434,-0.00000636,-0.0000136
 9,-0.00001236,-0.00001653,-0.00000976,-0.00000128,-0.00003200,-0.00004
 766,0.00000178,-0.00001631,-0.00001480,0.00000609,0.00000611,-0.000000
 66,-0.00000126,0.00000365,-0.00000071,-0.00000229,-0.00000652,-0.00001
 218,0.00000343,0.00000337,0.00000102,-0.00000260,-0.00000271,0.0000044
 4,0.00000151,0.00000104,-0.00000087,0.00000215,0.00000625,-0.00000033,
 -0.00000203,0.00000052,0.00000340,-0.00000263,0.00000908,0.00000262,-0
 .00000145,-0.00000234,0.00000221,-0.00000321,0.00000241,0.00000400,0.0
 0000367,-0.00000749,0.00000226,0.00281726,-0.00137453,0.02317809,0.006
 63590,-0.00003286,0.00049126,0.00023004,-0.00094824,-0.00046355,0.0049
 4511,0.00224223,-0.00229603,-0.00306287,0.00753827,-0.01559229,0.02260
 298,-0.06716219,0.06791752,-0.00244542,-0.00118742,-0.00055570,0.00016
 840,-0.00019181,0.00114938,-0.00064375,-0.00046254,-0.00000557,-0.0024
 5932,-0.00143715,0.00028141,-0.02874481,0.06280440,-0.00000211,-0.0000
 1170,0.00000902,0.00000081,-0.00002696,0.00000693,0.00002000,-0.000007
 42,-0.00003261,-0.00001104,0.00002390,0.00001232,-0.00000354,0.0000020
 5,0.00000513,0.00000251,-0.00000224,-0.00000478,-0.00000011,-0.0000074
 0,0.00000019,-0.00001821,0.00003491,0.00001811,0.00002671,-0.00005708,
 -0.00003016,0.00003353,0.00001773,-0.00000291,-0.00000338,-0.00001297,
 -0.00000028,0.00005824,0.00005999,-0.00003232,0.00013121,-0.00027922,-
 0.00019771,-0.00046040,0.00072408,-0.00057181,0.00005264,0.00001359,-0
 .00007442,0.00002153,-0.00001440,-0.00003176,-0.00002673,0.00000596,-0
 .00000001,-0.00002253,-0.00000133,-0.00000525,-0.00000273,-0.00001334,
 -0.00001428,0.00001689,0.00000707,-0.00000471,-0.00000376,0.00001595,-
 0.00000180,-0.00001010,-0.00000739,-0.00002251,0.00000897,0.00000335,0
 .00000422,-0.00000347,-0.00001048,0.00000326,0.00000735,0.00000560,0.0
 0000443,-0.00000680,0.00001139,-0.00000336,0.00000216,-0.00000440,-0.0
 0000054,-0.00000020,0.00001143,-0.00000189,-0.00000233,-0.00000862,0.0
 0000329,-0.00000268,-0.00000002,0.00000072,0.00000252,-0.00001164,0.00
 000883,0.00042353,-0.00015013,-0.00255595,-0.00075177,0.00110472,0.001
 73643,0.00042109,-0.00054975,0.00057606,0.00285369,-0.00276272,-0.0011
 6231,-0.00571640,0.00752574,-0.01726273,-0.04528450,0.06787376,-0.3176
 6990,-0.00035461,0.00015372,0.00063020,0.00008256,-0.00006255,-0.00024
 405,-0.00006525,0.00001679,-0.00007621,-0.00000354,-0.00032922,0.00087
 375,0.04858888,-0.07327862,0.33611377,0.00574245,0.00007191,0.00257807
 ,0.00375014,-0.00274297,-0.00112848,-0.08583931,0.09048916,0.06337960,
 -0.00215974,0.01192526,0.00557168,0.00011718,-0.00016275,-0.00000118,-
 0.00280358,-0.00034517,-0.00195761,-0.00273851,-0.00073717,-0.00202802
 ,-0.00075775,-0.00060572,-0.00018404,0.00442044,-0.00023991,0.00536770
 ,-0.00014883,-0.00008107,0.00022687,-0.00051549,-0.00005318,-0.0003102
 5,0.00002505,0.00001056,0.00001932,-0.00004781,0.00001835,-0.00002688,
 -0.00000912,0.00001039,0.00001706,-0.00024260,0.00004131,-0.00017270,0
 .00004082,0.00001567,0.00002074,0.00000567,0.00000405,0.00000440,-0.00
 000377,-0.00000496,0.00000011,-0.00003036,-0.00002145,-0.00002069,-0.0
 0003182,0.00001627,0.00009060,0.00033020,0.00067993,-0.00000849,0.0000
 0048,0.00002941,-0.00011407,0.00000213,0.00003523,0.00001200,-0.000006
 69,0.00000830,0.00003658,-0.00003183,0.00000164,0.00001286,0.00001234,
 -0.00001870,0.00001448,0.00001751,-0.00002058,-0.00002948,0.00000290,0
 .00000025,-0.00000102,-0.00001192,-0.00001399,0.00001972,0.00000270,-0
 .00000886,-0.00000544,-0.00000263,-0.00001114,0.00000404,-0.00000186,0
 .00000238,0.00000612,-0.00000166,-0.00000808,-0.00000105,-0.00000366,-
 0.00000019,-0.00000180,0.00008012,0.00000931,0.00002160,-0.00000586,0.
 00000364,0.00000995,-0.00000641,-0.00000197,-0.00000184,0.00000038,0.0
 0000164,0.00000086,-0.00000066,0.00000148,-0.00000022,0.00000431,0.000
 00141,-0.00000102,0.00000129,0.00000267,-0.00000310,0.00000017,0.00000
 030,0.00000135,0.08084557,-0.00016624,-0.00382812,0.00368012,0.0120042
 2,-0.01713917,-0.01596504,0.09046954,-0.23317371,-0.10563754,-0.002652
 34,0.00689824,0.00362857,0.00058081,-0.00095291,-0.00075083,-0.0007639
 6,0.00083780,-0.00006540,-0.00033382,0.00057555,-0.00076104,-0.0006862
 3,-0.00012846,0.00098662,0.00001392,0.00156791,0.00173362,-0.00002834,
 -0.00001138,0.00004635,-0.00007829,0.00008973,-0.00008804,0.00001077,-
 0.00005645,0.00000522,-0.00001898,0.00001413,0.00001779,0.00000200,0.0
 0002570,-0.00001090,-0.00002693,0.00000418,-0.00005973,-0.00000243,0.0
 0004888,0.00000652,0.00000272,-0.00000534,-0.00000084,0.00000354,-0.00
 000055,-0.00000623,0.00001315,-0.00000117,0.00000318,-0.00000368,-0.00
 000491,-0.00002821,-0.00008731,0.00030205,0.00020740,0.00003837,-0.000
 01330,-0.00004148,-0.00001338,0.00000987,-0.00000484,-0.00002108,-0.00
 000838,-0.00000459,0.00000628,-0.00000412,-0.00000660,0.00000268,0.000
 00120,-0.00002116,0.00001835,-0.00000456,0.00000472,0.00000130,-0.0000
 0237,-0.00000528,0.00000089,0.00000614,-0.00000444,0.00000067,-0.00001
 032,0.00000643,0.00000484,0.00000264,-0.00000987,0.00000302,-0.0000025
 8,-0.00000363,-0.00000228,-0.00000006,-0.00000071,0.00000548,-0.000004
 34,-0.00000661,0.00000249,0.00001461,0.00001884,0.00000193,-0.00000509
 ,-0.00000709,-0.00000052,-0.00000077,0.00000213,0.00000109,-0.00000090
 ,-0.00000152,0.00000156,-0.00000154,-0.00000032,-0.00000315,0.00000258
 ,-0.00000024,0.00000158,0.00000086,0.00000412,0.00000036,0.00000027,-0
 .00000212,-0.09830264,0.24495816,0.00265250,0.00325576,0.00131237,-0.0
 0561016,0.01100347,0.00961152,0.06338714,-0.10574485,-0.11997688,0.010
 03235,-0.02291381,-0.00852341,-0.00023084,0.00061668,0.00032256,-0.001
 83708,-0.00080842,-0.00031422,-0.00214619,-0.00001694,-0.00004006,-0.0
 0013618,0.00085294,-0.00095575,0.00525345,0.00204922,-0.00290307,0.000
 19739,0.00015883,-0.00043930,-0.00031855,-0.00013819,-0.00007857,0.000
 01785,0.00001019,-0.00000040,-0.00000833,-0.00004450,-0.00002082,0.000
 01053,-0.00000935,-0.00002494,-0.00015730,-0.00017224,-0.00000637,0.00
 002617,-0.00002589,0.00001459,0.00000386,-0.00000555,0.00000072,-0.000
 00474,0.00000884,0.00000002,0.00002338,0.00002179,0.00002723,-0.000127
 92,-0.00010125,0.00000622,0.00028892,-0.00111892,0.00029876,0.00008396
 ,-0.00007500,0.00000976,-0.00000295,-0.00004120,-0.00004236,-0.0000131
 8,0.00001652,0.00004685,0.00001540,0.00002115,0.00000071,-0.00002090,0
 .00002117,-0.00005202,-0.00000750,0.00000213,-0.00000708,-0.00000941,-
 0.00000070,-0.00000422,0.00000761,0.00001869,-0.00001906,0.00000413,0.
 00001453,0.00001770,0.00000201,0.00002202,-0.00001524,0.00000354,-0.00
 000325,-0.00000298,-0.00000093,-0.00000444,-0.00000047,0.00000702,-0.0
 0000614,-0.00001737,0.00003175,-0.00000475,0.00004556,-0.00000189,-0.0
 0000317,-0.00000449,-0.00000225,-0.00000204,0.00000346,0.00000170,-0.0
 0000062,-0.00000144,0.00000223,-0.00000197,-0.00000121,-0.00000165,0.0
 0000369,-0.00000025,0.00000290,0.00000260,0.00000552,0.00000054,0.0000
 0031,-0.00000242,-0.07141837,0.11314266,0.12173086\\-0.00000088,0.0000
 0040,0.00000206,0.00000031,0.00000349,-0.00000217,-0.00000141,-0.00000
 178,0.00000287,0.00000033,0.00000344,-0.00000569,0.00000104,0.00000108
 ,-0.00000064,-0.00000044,0.00000264,0.00000009,-0.00000087,0.,-0.00000
 178,0.00000036,0.00000323,-0.00000203,0.00000154,-0.00000043,0.0000049
 1,0.00000369,-0.00000583,0.00000357,-0.00000045,-0.00000340,0.00000546
 ,0.00000053,0.00000250,0.00000210,0.00000166,0.00000105,-0.00000467,0.
 00000127,-0.00000561,0.00000501,0.00000026,0.00000721,-0.00000356,0.00
 000104,0.00000080,0.00000098,0.00000194,-0.00000050,-0.00000003,-0.000
 00081,-0.00000022,-0.00000069,-0.00000183,-0.00000785,-0.00000932,0.00
 001880,0.00001505,0.00001197,-0.00003384,-0.00000433,-0.00002475,0.000
 01284,-0.00000757,0.00001211,-0.00000180,0.00000872,0.00000319,-0.0000
 0092,-0.00000226,-0.00000464,-0.00000212,-0.00000184,-0.00000370,-0.00
 000122,0.00000071,-0.00000181,-0.00000203,-0.00000130,-0.00000094,-0.0
 0000045,0.00000120,0.00000249,-0.00000165,0.00000274,-0.00000057,0.000
 00017,-0.00000196,-0.00000434,-0.00000047,-0.00000285,-0.00000323,0.00
 000314,-0.00000343,-0.00000277,-0.00000193,0.00000246,0.00000477,0.000
 00588,-0.00000343,-0.00000040,-0.00000287,0.00000048,0.00000319,0.0000
 0082,-0.00000189,-0.00000130,0.00000003,-0.00000070,0.00000497,0.00000
 041,-0.00000031,0.00000253,0.00000151,-0.00000088,0.00000297,0.0000000
 2,0.00000089,0.00000269,-0.00000030,0.00000018,0.00000142,0.00000011,-
 0.00000100,0.00000025,-0.00000140,0.00000108,-0.00000055\\\@
 The archive entry for this job was punched.


 ASKING FOR EFFICIENCY AND ADAPTABILITY IN THE SAME PROGRAM IS LIKE
 ASKING FOR A BEAUTIFUL AND MODEST WIFE ...
 WE'LL PROBABLY HAVE TO SETTLE FOR ONE OR THE OTHER.

             -- THE PSYCHOLOGY OF COMPUTER PROGRAMMING
                GERALD M. WEINBERG
 Job cpu time:       5 days  1 hours  5 minutes 54.9 seconds.
 Elapsed time:       0 days  3 hours 49 minutes 36.4 seconds.
 File lengths (MBytes):  RWF=   2007 Int=      0 D2E=      0 Chk=     56 Scr=      1
 Normal termination of Gaussian 16 at Tue Nov 14 20:37:34 2023.
