 Entering Gaussian System, Link 0=g16
 Input=ph_pyrene_me_1_1_m062x.com
 Output=ph_pyrene_me_1_1_m062x.log
 Initial command:
 /arc/software/Gaussian/g16.c01/l1.exe "/tmp/slurm/41782/Gau-192169.inp" -scrdir="/tmp/slurm/41782/"
 Entering Link 1 = /arc/software/Gaussian/g16.c01/l1.exe PID=    192170.
  
 Copyright (c) 1988-2019, Gaussian, Inc.  All Rights Reserved.
  
 This is part of the Gaussian(R) 16 program.  It is based on
 the Gaussian(R) 09 system (copyright 2009, Gaussian, Inc.),
 the Gaussian(R) 03 system (copyright 2003, Gaussian, Inc.),
 the Gaussian(R) 98 system (copyright 1998, Gaussian, Inc.),
 the Gaussian(R) 94 system (copyright 1995, Gaussian, Inc.),
 the Gaussian 92(TM) system (copyright 1992, Gaussian, Inc.),
 the Gaussian 90(TM) system (copyright 1990, Gaussian, Inc.),
 the Gaussian 88(TM) system (copyright 1988, Gaussian, Inc.),
 the Gaussian 86(TM) system (copyright 1986, Carnegie Mellon
 University), and the Gaussian 82(TM) system (copyright 1983,
 Carnegie Mellon University). Gaussian is a federally registered
 trademark of Gaussian, Inc.
  
 This software contains proprietary and confidential information,
 including trade secrets, belonging to Gaussian, Inc.
  
 This software is provided under written license and may be
 used, copied, transmitted, or stored only in accord with that
 written license.
  
 The following legend is applicable only to US Government
 contracts under FAR:
  
                    RESTRICTED RIGHTS LEGEND
  
 Use, reproduction and disclosure by the US Government is
 subject to restrictions as set forth in subparagraphs (a)
 and (c) of the Commercial Computer Software - Restricted
 Rights clause in FAR 52.227-19.
  
 Gaussian, Inc.
 340 Quinnipiac St., Bldg. 40, Wallingford CT 06492
  
  
 ---------------------------------------------------------------
 Warning -- This program may not be used in any manner that
 competes with the business of Gaussian, Inc. or will provide
 assistance to any competitor of Gaussian, Inc.  The licensee
 of this program is prohibited from giving any competitor of
 Gaussian, Inc. access to this program.  By using this program,
 the user acknowledges that Gaussian, Inc. is engaged in the
 business of creating and licensing software in the field of
 computational chemistry and represents and warrants to the
 licensee that it is not a competitor of Gaussian, Inc. and that
 it will not use this program in any manner prohibited above.
 ---------------------------------------------------------------
  

 Cite this work as:
 Gaussian 16, Revision C.01,
 M. J. Frisch, G. W. Trucks, H. B. Schlegel, G. E. Scuseria, 
 M. A. Robb, J. R. Cheeseman, G. Scalmani, V. Barone, 
 G. A. Petersson, H. Nakatsuji, X. Li, M. Caricato, A. V. Marenich, 
 J. Bloino, B. G. Janesko, R. Gomperts, B. Mennucci, H. P. Hratchian, 
 J. V. Ortiz, A. F. Izmaylov, J. L. Sonnenberg, D. Williams-Young, 
 F. Ding, F. Lipparini, F. Egidi, J. Goings, B. Peng, A. Petrone, 
 T. Henderson, D. Ranasinghe, V. G. Zakrzewski, J. Gao, N. Rega, 
 G. Zheng, W. Liang, M. Hada, M. Ehara, K. Toyota, R. Fukuda, 
 J. Hasegawa, M. Ishida, T. Nakajima, Y. Honda, O. Kitao, H. Nakai, 
 T. Vreven, K. Throssell, J. A. Montgomery, Jr., J. E. Peralta, 
 F. Ogliaro, M. J. Bearpark, J. J. Heyd, E. N. Brothers, K. N. Kudin, 
 V. N. Staroverov, T. A. Keith, R. Kobayashi, J. Normand, 
 K. Raghavachari, A. P. Rendell, J. C. Burant, S. S. Iyengar, 
 J. Tomasi, M. Cossi, J. M. Millam, M. Klene, C. Adamo, R. Cammi, 
 J. W. Ochterski, R. L. Martin, K. Morokuma, O. Farkas, 
 J. B. Foresman, and D. J. Fox, Gaussian, Inc., Wallingford CT, 2019.
 
 ******************************************
 Gaussian 16:  ES64L-G16RevC.01  3-Jul-2019
                14-Nov-2023 
 ******************************************
 %nprocshared=32
 Will use up to   32 processors via shared memory.
 %mem=8000MB
 %chk=ph_pyrene_me_1_1_m062x.chk
 -----------------------------------------
 # opt freq=noraman m062x def2tzvp pop=nbo
 -----------------------------------------
 1/18=20,19=15,26=3,38=1/1,3;
 2/9=110,12=2,17=6,18=5,40=1/2;
 3/5=44,7=101,11=2,25=1,30=1,71=1,74=-55/1,2,3;
 4//1;
 5/5=2,38=5/2;
 6/7=2,8=2,9=2,10=2,28=1,40=1/1,7;
 7//1,2,3,16;
 1/18=20,19=15,26=3/3(2);
 2/9=110/2;
 99//99;
 2/9=110/2;
 3/5=44,7=101,11=2,25=1,30=1,71=1,74=-55/1,2,3;
 4/5=5,16=3,69=1/1;
 5/5=2,38=5/2;
 7//1,2,3,16;
 1/18=20,19=15,26=3/3(-5);
 2/9=110/2;
 6/7=2,8=2,9=2,10=2,19=2,28=1,40=1/1,7;
 99/9=1/99;
 ------------
 Structure697
 ------------
 Symbolic Z-matrix:
 Charge =  0 Multiplicity = 1
 C                    -5.3717   -15.8497   14.045 
 C                    -6.5531   -15.5342   13.3787 
 C                    -6.6187   -14.3801   12.6018 
 C                    -5.5078   -13.536    12.484 
 C                    -4.3276   -13.8687   13.1601 
 C                    -4.2576   -15.021    13.9393 
 H                    -5.319    -16.7445   14.6486 
 H                    -7.4139   -16.1819   13.4615 
 H                    -7.5346   -14.1451   12.079 
 H                    -3.4634   -13.224    13.0894 
 H                    -3.3441   -15.2686   14.4605 
 C                    -4.5973   -10.8416   9.9403 
 C                    -4.5636   -12.0015   10.7478 
 C                    -5.5803   -12.3033   11.6524 
 C                    -6.6657   -11.4365   11.7686 
 H                    -3.7251   -12.6745   10.6461 
 H                    -7.4515   -11.6599   12.4749 
 C                    -5.7186   -9.9528    10.0666 
 C                    -6.7696   -10.2563   10.9973 
 C                    -7.8572   -9.3733    11.1083 
 C                    -7.9301   -8.2252    10.3384 
 C                    -6.9189   -7.8866    9.4074 
 C                    -5.7879   -8.7746    9.2717 
 H                    -8.6475   -9.5996    11.809 
 H                    -8.7841   -7.5765    10.4573 
 C                    -3.5801   -10.5289   9.0225 
 C                    -3.642    -9.3847    8.2459 
 C                    -4.7265   -8.4794    8.3377 
 H                    -2.838    -9.185     7.5546 
 H                    -2.7372   -11.1973   8.9255 
 C                    -6.9521   -6.7169    8.5942 
 C                    -4.832    -7.2903    7.5595 
 C                    -5.9249   -6.4446    7.6997 
 H                    -5.9775   -5.5504    7.0964 
 C                    -8.123    -5.7479    8.6994 
 H                    -8.0175   -4.9002    8.0217 
 H                    -9.0571   -6.254     8.4544 
 H                    -8.1993   -5.3542    9.7133 
 C                    -3.7391   -6.9335    6.5598 
 H                    -3.9494   -6.0005    6.0362 
 H                    -2.7819   -6.8193    7.0693 
 H                    -3.6398   -7.7192    5.8103 
 

 GradGradGradGradGradGradGradGradGradGradGradGradGradGradGradGradGradGrad
 Berny optimization.
 Initialization pass.
                           ----------------------------
                           !    Initial Parameters    !
                           ! (Angstroms and Degrees)  !
 --------------------------                            --------------------------
 ! Name  Definition              Value          Derivative Info.                !
 --------------------------------------------------------------------------------
 ! R1    R(1,2)                  1.3926         estimate D2E/DX2                !
 ! R2    R(1,6)                  1.3925         estimate D2E/DX2                !
 ! R3    R(1,7)                  1.0806         estimate D2E/DX2                !
 ! R4    R(2,3)                  1.3928         estimate D2E/DX2                !
 ! R5    R(2,8)                  1.0804         estimate D2E/DX2                !
 ! R6    R(3,4)                  1.4002         estimate D2E/DX2                !
 ! R7    R(3,9)                  1.0805         estimate D2E/DX2                !
 ! R8    R(4,5)                  1.4002         estimate D2E/DX2                !
 ! R9    R(4,14)                 1.4887         estimate D2E/DX2                !
 ! R10   R(5,6)                  1.3928         estimate D2E/DX2                !
 ! R11   R(5,10)                 1.0805         estimate D2E/DX2                !
 ! R12   R(6,11)                 1.0805         estimate D2E/DX2                !
 ! R13   R(12,13)                1.4137         estimate D2E/DX2                !
 ! R14   R(12,18)                1.4364         estimate D2E/DX2                !
 ! R15   R(12,26)                1.4053         estimate D2E/DX2                !
 ! R16   R(13,14)                1.3939         estimate D2E/DX2                !
 ! R17   R(13,16)                1.08           estimate D2E/DX2                !
 ! R18   R(14,15)                1.3939         estimate D2E/DX2                !
 ! R19   R(15,17)                1.0799         estimate D2E/DX2                !
 ! R20   R(15,19)                1.4137         estimate D2E/DX2                !
 ! R21   R(18,19)                1.4363         estimate D2E/DX2                !
 ! R22   R(18,23)                1.423          estimate D2E/DX2                !
 ! R23   R(19,20)                1.4053         estimate D2E/DX2                !
 ! R24   R(20,21)                1.3843         estimate D2E/DX2                !
 ! R25   R(20,24)                1.0802         estimate D2E/DX2                !
 ! R26   R(21,22)                1.4156         estimate D2E/DX2                !
 ! R27   R(21,25)                1.079          estimate D2E/DX2                !
 ! R28   R(22,23)                1.4443         estimate D2E/DX2                !
 ! R29   R(22,31)                1.425          estimate D2E/DX2                !
 ! R30   R(23,28)                1.4443         estimate D2E/DX2                !
 ! R31   R(26,27)                1.3842         estimate D2E/DX2                !
 ! R32   R(26,30)                1.0801         estimate D2E/DX2                !
 ! R33   R(27,28)                1.4157         estimate D2E/DX2                !
 ! R34   R(27,29)                1.079          estimate D2E/DX2                !
 ! R35   R(28,32)                1.425          estimate D2E/DX2                !
 ! R36   R(31,33)                1.389          estimate D2E/DX2                !
 ! R37   R(31,35)                1.5235         estimate D2E/DX2                !
 ! R38   R(32,33)                1.389          estimate D2E/DX2                !
 ! R39   R(32,39)                1.5235         estimate D2E/DX2                !
 ! R40   R(33,34)                1.08           estimate D2E/DX2                !
 ! R41   R(35,36)                1.0904         estimate D2E/DX2                !
 ! R42   R(35,37)                1.0903         estimate D2E/DX2                !
 ! R43   R(35,38)                1.0903         estimate D2E/DX2                !
 ! R44   R(39,40)                1.0904         estimate D2E/DX2                !
 ! R45   R(39,41)                1.0904         estimate D2E/DX2                !
 ! R46   R(39,42)                1.0904         estimate D2E/DX2                !
 ! A1    A(2,1,6)              120.5039         estimate D2E/DX2                !
 ! A2    A(2,1,7)              119.7508         estimate D2E/DX2                !
 ! A3    A(6,1,7)              119.7453         estimate D2E/DX2                !
 ! A4    A(1,2,3)              119.6428         estimate D2E/DX2                !
 ! A5    A(1,2,8)              120.2266         estimate D2E/DX2                !
 ! A6    A(3,2,8)              120.1304         estimate D2E/DX2                !
 ! A7    A(2,3,4)              120.6043         estimate D2E/DX2                !
 ! A8    A(2,3,9)              119.3441         estimate D2E/DX2                !
 ! A9    A(4,3,9)              120.0482         estimate D2E/DX2                !
 ! A10   A(3,4,5)              119.0034         estimate D2E/DX2                !
 ! A11   A(3,4,14)             120.4994         estimate D2E/DX2                !
 ! A12   A(5,4,14)             120.4972         estimate D2E/DX2                !
 ! A13   A(4,5,6)              120.6018         estimate D2E/DX2                !
 ! A14   A(4,5,10)             120.0506         estimate D2E/DX2                !
 ! A15   A(6,5,10)             119.3441         estimate D2E/DX2                !
 ! A16   A(1,6,5)              119.6438         estimate D2E/DX2                !
 ! A17   A(1,6,11)             120.2269         estimate D2E/DX2                !
 ! A18   A(5,6,11)             120.1291         estimate D2E/DX2                !
 ! A19   A(13,12,18)           118.4288         estimate D2E/DX2                !
 ! A20   A(13,12,26)           122.5723         estimate D2E/DX2                !
 ! A21   A(18,12,26)           118.9989         estimate D2E/DX2                !
 ! A22   A(12,13,14)           122.0683         estimate D2E/DX2                !
 ! A23   A(12,13,16)           118.4247         estimate D2E/DX2                !
 ! A24   A(14,13,16)           119.5036         estimate D2E/DX2                !
 ! A25   A(4,14,13)            120.4145         estimate D2E/DX2                !
 ! A26   A(4,14,15)            120.4149         estimate D2E/DX2                !
 ! A27   A(13,14,15)           119.1706         estimate D2E/DX2                !
 ! A28   A(14,15,17)           119.5038         estimate D2E/DX2                !
 ! A29   A(14,15,19)           122.0655         estimate D2E/DX2                !
 ! A30   A(17,15,19)           118.4274         estimate D2E/DX2                !
 ! A31   A(12,18,19)           119.8317         estimate D2E/DX2                !
 ! A32   A(12,18,23)           120.0818         estimate D2E/DX2                !
 ! A33   A(19,18,23)           120.0865         estimate D2E/DX2                !
 ! A34   A(15,19,18)           118.435          estimate D2E/DX2                !
 ! A35   A(15,19,20)           122.5703         estimate D2E/DX2                !
 ! A36   A(18,19,20)           118.9947         estimate D2E/DX2                !
 ! A37   A(19,20,21)           121.1956         estimate D2E/DX2                !
 ! A38   A(19,20,24)           119.0673         estimate D2E/DX2                !
 ! A39   A(21,20,24)           119.7371         estimate D2E/DX2                !
 ! A40   A(20,21,22)           121.7724         estimate D2E/DX2                !
 ! A41   A(20,21,25)           118.6216         estimate D2E/DX2                !
 ! A42   A(22,21,25)           119.6059         estimate D2E/DX2                !
 ! A43   A(21,22,23)           118.3            estimate D2E/DX2                !
 ! A44   A(21,22,31)           123.7114         estimate D2E/DX2                !
 ! A45   A(23,22,31)           117.9886         estimate D2E/DX2                !
 ! A46   A(18,23,22)           119.6507         estimate D2E/DX2                !
 ! A47   A(18,23,28)           119.649          estimate D2E/DX2                !
 ! A48   A(22,23,28)           120.7003         estimate D2E/DX2                !
 ! A49   A(12,26,27)           121.1963         estimate D2E/DX2                !
 ! A50   A(12,26,30)           119.0663         estimate D2E/DX2                !
 ! A51   A(27,26,30)           119.7374         estimate D2E/DX2                !
 ! A52   A(26,27,28)           121.767          estimate D2E/DX2                !
 ! A53   A(26,27,29)           118.6277         estimate D2E/DX2                !
 ! A54   A(28,27,29)           119.6054         estimate D2E/DX2                !
 ! A55   A(23,28,27)           118.307          estimate D2E/DX2                !
 ! A56   A(23,28,32)           117.9881         estimate D2E/DX2                !
 ! A57   A(27,28,32)           123.7049         estimate D2E/DX2                !
 ! A58   A(22,31,33)           120.7426         estimate D2E/DX2                !
 ! A59   A(22,31,35)           120.0391         estimate D2E/DX2                !
 ! A60   A(33,31,35)           119.2183         estimate D2E/DX2                !
 ! A61   A(28,32,33)           120.7431         estimate D2E/DX2                !
 ! A62   A(28,32,39)           120.0429         estimate D2E/DX2                !
 ! A63   A(33,32,39)           119.214          estimate D2E/DX2                !
 ! A64   A(31,33,32)           121.8373         estimate D2E/DX2                !
 ! A65   A(31,33,34)           119.0805         estimate D2E/DX2                !
 ! A66   A(32,33,34)           119.0822         estimate D2E/DX2                !
 ! A67   A(31,35,36)           112.1595         estimate D2E/DX2                !
 ! A68   A(31,35,37)           110.3471         estimate D2E/DX2                !
 ! A69   A(31,35,38)           110.3441         estimate D2E/DX2                !
 ! A70   A(36,35,37)           107.7041         estimate D2E/DX2                !
 ! A71   A(36,35,38)           107.6981         estimate D2E/DX2                !
 ! A72   A(37,35,38)           108.4586         estimate D2E/DX2                !
 ! A73   A(32,39,40)           112.1567         estimate D2E/DX2                !
 ! A74   A(32,39,41)           110.3442         estimate D2E/DX2                !
 ! A75   A(32,39,42)           110.3413         estimate D2E/DX2                !
 ! A76   A(40,39,41)           107.7035         estimate D2E/DX2                !
 ! A77   A(40,39,42)           107.7019         estimate D2E/DX2                !
 ! A78   A(41,39,42)           108.4646         estimate D2E/DX2                !
 ! D1    D(6,1,2,3)             -0.0335         estimate D2E/DX2                !
 ! D2    D(6,1,2,8)            179.8192         estimate D2E/DX2                !
 ! D3    D(7,1,2,3)            179.974          estimate D2E/DX2                !
 ! D4    D(7,1,2,8)             -0.1733         estimate D2E/DX2                !
 ! D5    D(2,1,6,5)             -0.0327         estimate D2E/DX2                !
 ! D6    D(2,1,6,11)           179.8232         estimate D2E/DX2                !
 ! D7    D(7,1,6,5)            179.9597         estimate D2E/DX2                !
 ! D8    D(7,1,6,11)            -0.1844         estimate D2E/DX2                !
 ! D9    D(1,2,3,4)              0.0647         estimate D2E/DX2                !
 ! D10   D(1,2,3,9)            179.3949         estimate D2E/DX2                !
 ! D11   D(8,2,3,4)           -179.7882         estimate D2E/DX2                !
 ! D12   D(8,2,3,9)             -0.458          estimate D2E/DX2                !
 ! D13   D(2,3,4,5)             -0.0292         estimate D2E/DX2                !
 ! D14   D(2,3,4,14)           179.97           estimate D2E/DX2                !
 ! D15   D(9,3,4,5)           -179.3547         estimate D2E/DX2                !
 ! D16   D(9,3,4,14)             0.6445         estimate D2E/DX2                !
 ! D17   D(3,4,5,6)             -0.0379         estimate D2E/DX2                !
 ! D18   D(3,4,5,10)          -179.3582         estimate D2E/DX2                !
 ! D19   D(14,4,5,6)           179.963          estimate D2E/DX2                !
 ! D20   D(14,4,5,10)            0.6427         estimate D2E/DX2                !
 ! D21   D(3,4,14,13)         -133.0109         estimate D2E/DX2                !
 ! D22   D(3,4,14,15)           46.9883         estimate D2E/DX2                !
 ! D23   D(5,4,14,13)           46.9882         estimate D2E/DX2                !
 ! D24   D(5,4,14,15)         -133.0125         estimate D2E/DX2                !
 ! D25   D(4,5,6,1)              0.0687         estimate D2E/DX2                !
 ! D26   D(4,5,6,11)          -179.7873         estimate D2E/DX2                !
 ! D27   D(10,5,6,1)           179.3938         estimate D2E/DX2                !
 ! D28   D(10,5,6,11)           -0.4623         estimate D2E/DX2                !
 ! D29   D(18,12,13,14)          0.1021         estimate D2E/DX2                !
 ! D30   D(18,12,13,16)        179.4317         estimate D2E/DX2                !
 ! D31   D(26,12,13,14)       -179.8257         estimate D2E/DX2                !
 ! D32   D(26,12,13,16)         -0.4961         estimate D2E/DX2                !
 ! D33   D(13,12,18,19)         -0.0459         estimate D2E/DX2                !
 ! D34   D(13,12,18,23)        179.9507         estimate D2E/DX2                !
 ! D35   D(26,12,18,19)        179.8845         estimate D2E/DX2                !
 ! D36   D(26,12,18,23)         -0.1189         estimate D2E/DX2                !
 ! D37   D(13,12,26,27)       -179.9855         estimate D2E/DX2                !
 ! D38   D(13,12,26,30)          0.0246         estimate D2E/DX2                !
 ! D39   D(18,12,26,27)          0.0871         estimate D2E/DX2                !
 ! D40   D(18,12,26,30)       -179.9027         estimate D2E/DX2                !
 ! D41   D(12,13,14,4)         179.9448         estimate D2E/DX2                !
 ! D42   D(12,13,14,15)         -0.0545         estimate D2E/DX2                !
 ! D43   D(16,13,14,4)           0.6222         estimate D2E/DX2                !
 ! D44   D(16,13,14,15)       -179.377          estimate D2E/DX2                !
 ! D45   D(4,14,15,17)           0.6169         estimate D2E/DX2                !
 ! D46   D(4,14,15,19)         179.9485         estimate D2E/DX2                !
 ! D47   D(13,14,15,17)       -179.3838         estimate D2E/DX2                !
 ! D48   D(13,14,15,19)         -0.0523         estimate D2E/DX2                !
 ! D49   D(14,15,19,18)          0.1048         estimate D2E/DX2                !
 ! D50   D(14,15,19,20)       -179.8322         estimate D2E/DX2                !
 ! D51   D(17,15,19,18)        179.4433         estimate D2E/DX2                !
 ! D52   D(17,15,19,20)         -0.4937         estimate D2E/DX2                !
 ! D53   D(12,18,19,15)         -0.0536         estimate D2E/DX2                !
 ! D54   D(12,18,19,20)        179.8857         estimate D2E/DX2                !
 ! D55   D(23,18,19,15)        179.9498         estimate D2E/DX2                !
 ! D56   D(23,18,19,20)         -0.1109         estimate D2E/DX2                !
 ! D57   D(12,18,23,22)       -179.9271         estimate D2E/DX2                !
 ! D58   D(12,18,23,28)          0.0739         estimate D2E/DX2                !
 ! D59   D(19,18,23,22)          0.0695         estimate D2E/DX2                !
 ! D60   D(19,18,23,28)       -179.9295         estimate D2E/DX2                !
 ! D61   D(15,19,20,21)       -179.9868         estimate D2E/DX2                !
 ! D62   D(15,19,20,24)          0.0329         estimate D2E/DX2                !
 ! D63   D(18,19,20,21)          0.0765         estimate D2E/DX2                !
 ! D64   D(18,19,20,24)       -179.9038         estimate D2E/DX2                !
 ! D65   D(19,20,21,22)          0.0006         estimate D2E/DX2                !
 ! D66   D(19,20,21,25)        179.9944         estimate D2E/DX2                !
 ! D67   D(24,20,21,22)        179.9807         estimate D2E/DX2                !
 ! D68   D(24,20,21,25)         -0.0254         estimate D2E/DX2                !
 ! D69   D(20,21,22,23)         -0.0427         estimate D2E/DX2                !
 ! D70   D(20,21,22,31)        179.9718         estimate D2E/DX2                !
 ! D71   D(25,21,22,23)        179.9635         estimate D2E/DX2                !
 ! D72   D(25,21,22,31)         -0.022          estimate D2E/DX2                !
 ! D73   D(21,22,23,18)          0.0067         estimate D2E/DX2                !
 ! D74   D(21,22,23,28)       -179.9943         estimate D2E/DX2                !
 ! D75   D(31,22,23,18)        179.9931         estimate D2E/DX2                !
 ! D76   D(31,22,23,28)         -0.008          estimate D2E/DX2                !
 ! D77   D(21,22,31,33)        179.9991         estimate D2E/DX2                !
 ! D78   D(21,22,31,35)         -0.0081         estimate D2E/DX2                !
 ! D79   D(23,22,31,33)          0.0135         estimate D2E/DX2                !
 ! D80   D(23,22,31,35)       -179.9936         estimate D2E/DX2                !
 ! D81   D(18,23,28,27)          0.0036         estimate D2E/DX2                !
 ! D82   D(18,23,28,32)        179.9946         estimate D2E/DX2                !
 ! D83   D(22,23,28,27)       -179.9954         estimate D2E/DX2                !
 ! D84   D(22,23,28,32)         -0.0044         estimate D2E/DX2                !
 ! D85   D(12,26,27,28)         -0.0091         estimate D2E/DX2                !
 ! D86   D(12,26,27,29)        179.9927         estimate D2E/DX2                !
 ! D87   D(30,26,27,28)        179.9806         estimate D2E/DX2                !
 ! D88   D(30,26,27,29)         -0.0175         estimate D2E/DX2                !
 ! D89   D(26,27,28,23)         -0.0369         estimate D2E/DX2                !
 ! D90   D(26,27,28,32)        179.9727         estimate D2E/DX2                !
 ! D91   D(29,27,28,23)        179.9612         estimate D2E/DX2                !
 ! D92   D(29,27,28,32)         -0.0292         estimate D2E/DX2                !
 ! D93   D(23,28,32,33)          0.0119         estimate D2E/DX2                !
 ! D94   D(23,28,32,39)       -179.9936         estimate D2E/DX2                !
 ! D95   D(27,28,32,33)       -179.9977         estimate D2E/DX2                !
 ! D96   D(27,28,32,39)         -0.0031         estimate D2E/DX2                !
 ! D97   D(22,31,33,32)         -0.0065         estimate D2E/DX2                !
 ! D98   D(22,31,33,34)        179.9922         estimate D2E/DX2                !
 ! D99   D(35,31,33,32)       -179.9994         estimate D2E/DX2                !
 ! D100  D(35,31,33,34)         -0.0007         estimate D2E/DX2                !
 ! D101  D(22,31,35,36)       -179.9957         estimate D2E/DX2                !
 ! D102  D(22,31,35,37)        -59.9136         estimate D2E/DX2                !
 ! D103  D(22,31,35,38)         59.9318         estimate D2E/DX2                !
 ! D104  D(33,31,35,36)         -0.0028         estimate D2E/DX2                !
 ! D105  D(33,31,35,37)        120.0793         estimate D2E/DX2                !
 ! D106  D(33,31,35,38)       -120.0752         estimate D2E/DX2                !
 ! D107  D(28,32,33,31)         -0.0067         estimate D2E/DX2                !
 ! D108  D(28,32,33,34)        179.9946         estimate D2E/DX2                !
 ! D109  D(39,32,33,31)        179.9987         estimate D2E/DX2                !
 ! D110  D(39,32,33,34)          0.0            estimate D2E/DX2                !
 ! D111  D(28,32,39,40)       -179.9955         estimate D2E/DX2                !
 ! D112  D(28,32,39,41)        -59.918          estimate D2E/DX2                !
 ! D113  D(28,32,39,42)         59.9312         estimate D2E/DX2                !
 ! D114  D(33,32,39,40)         -0.0008         estimate D2E/DX2                !
 ! D115  D(33,32,39,41)        120.0766         estimate D2E/DX2                !
 ! D116  D(33,32,39,42)       -120.0742         estimate D2E/DX2                !
 --------------------------------------------------------------------------------
 Trust Radius=3.00D-01 FncErr=1.00D-07 GrdErr=1.00D-06 EigMax=2.50D+02 EigMin=1.00D-04
 Number of steps in this run=    250 maximum allowed number of steps=    252.
 GradGradGradGradGradGradGradGradGradGradGradGradGradGradGradGradGradGrad

                          Input orientation:                          
 ---------------------------------------------------------------------
 Center     Atomic      Atomic             Coordinates (Angstroms)
 Number     Number       Type             X           Y           Z
 ---------------------------------------------------------------------
      1          6           0       -5.371700  -15.849700   14.045000
      2          6           0       -6.553100  -15.534200   13.378700
      3          6           0       -6.618700  -14.380100   12.601800
      4          6           0       -5.507800  -13.536000   12.484000
      5          6           0       -4.327600  -13.868700   13.160100
      6          6           0       -4.257600  -15.021000   13.939300
      7          1           0       -5.319000  -16.744500   14.648600
      8          1           0       -7.413900  -16.181900   13.461500
      9          1           0       -7.534600  -14.145100   12.079000
     10          1           0       -3.463400  -13.224000   13.089400
     11          1           0       -3.344100  -15.268600   14.460500
     12          6           0       -4.597300  -10.841600    9.940300
     13          6           0       -4.563600  -12.001500   10.747800
     14          6           0       -5.580300  -12.303300   11.652400
     15          6           0       -6.665700  -11.436500   11.768600
     16          1           0       -3.725100  -12.674500   10.646100
     17          1           0       -7.451500  -11.659900   12.474900
     18          6           0       -5.718600   -9.952800   10.066600
     19          6           0       -6.769600  -10.256300   10.997300
     20          6           0       -7.857200   -9.373300   11.108300
     21          6           0       -7.930100   -8.225200   10.338400
     22          6           0       -6.918900   -7.886600    9.407400
     23          6           0       -5.787900   -8.774600    9.271700
     24          1           0       -8.647500   -9.599600   11.809000
     25          1           0       -8.784100   -7.576500   10.457300
     26          6           0       -3.580100  -10.528900    9.022500
     27          6           0       -3.642000   -9.384700    8.245900
     28          6           0       -4.726500   -8.479400    8.337700
     29          1           0       -2.838000   -9.185000    7.554600
     30          1           0       -2.737200  -11.197300    8.925500
     31          6           0       -6.952100   -6.716900    8.594200
     32          6           0       -4.832000   -7.290300    7.559500
     33          6           0       -5.924900   -6.444600    7.699700
     34          1           0       -5.977500   -5.550400    7.096400
     35          6           0       -8.123000   -5.747900    8.699400
     36          1           0       -8.017500   -4.900200    8.021700
     37          1           0       -9.057100   -6.254000    8.454400
     38          1           0       -8.199300   -5.354200    9.713300
     39          6           0       -3.739100   -6.933500    6.559800
     40          1           0       -3.949400   -6.000500    6.036200
     41          1           0       -2.781900   -6.819300    7.069300
     42          1           0       -3.639800   -7.719200    5.810300
 ---------------------------------------------------------------------
                    Distance matrix (angstroms):
                    1          2          3          4          5
     1  C    0.000000
     2  C    1.392552   0.000000
     3  C    2.407812   1.392776   0.000000
     4  C    2.794361   2.426096   1.400172   0.000000
     5  C    2.407811   2.788284   2.412958   1.400240   0.000000
     6  C    1.392528   2.418050   2.788270   2.426133   1.392784
     7  H    1.080637   2.144872   3.386591   3.874998   3.386552
     8  H    2.149746   1.080439   2.148932   3.404337   3.868719
     9  H    3.383630   2.140598   1.080471   2.154750   3.395589
    10  H    3.383649   3.868716   3.395621   2.154861   1.080499
    11  H    2.149763   3.396839   3.868747   3.404417   2.148961
    12  C    6.521451   6.137446   4.867301   3.815653   4.427548
    13  C    5.131588   4.833189   3.649451   2.502118   3.059628
    14  C    4.283107   3.790141   2.508532   1.488746   2.508564
    15  C    5.131546   4.404117   3.059610   2.502085   3.649463
    16  H    4.934137   4.862363   3.886741   2.701496   2.847686
    17  H    4.934086   4.078502   2.847656   2.701445   3.886779
    18  C    7.121898   6.543579   5.180580   4.327538   5.180627
    19  C    6.521405   5.794322   4.427518   3.815606   4.867289
    20  C    7.532972   6.694183   5.369588   4.973962   6.072609
    21  C    8.855354   8.034988   6.687716   6.218982   7.265610
    22  C    9.344096   8.625011   7.242917   6.585772   7.522175
    23  C    8.544861   7.946394   6.572779   5.750501   6.572822
    24  H    7.402318   6.486135   5.253355   5.080215   6.221915
    25  H    9.641675   8.765668   7.454986   7.096287   8.170514
    26  C    7.533011   7.271055   6.072579   4.973998   5.369614
    27  C    8.855374   8.522704   7.265578   6.219003   6.687725
    28  C    9.344029   8.861058   7.522050   6.585699   7.242874
    29  H    9.641740   9.382668   8.170495   7.096338   7.455037
    30  H    7.402344   7.293887   6.221852   5.080223   5.253341
    31  C   10.752531  10.039692   8.654285   7.982272   8.881649
    32  C   10.752503  10.236560   8.881574   7.982241   8.654276
    33  C   11.358907  10.736224   9.353294   8.564546   9.353320
    34  H   12.438875  11.809948  10.425170   9.644514  10.425197
    35  C   11.755486  10.960479   9.592003   9.045273  10.012507
    36  H   12.773878  11.996828  10.620850  10.039311  10.975086
    37  H   11.701044  10.800040   9.443528   9.047803  10.124003
    38  H   11.701046  10.944292   9.607736   9.047806   9.968310
    39  C   11.755519  11.330844  10.012478   9.045300   9.592043
    40  H   12.773823  12.311905  10.974970  10.039248  10.620808
    41  H   11.701093  11.400875  10.123996   9.047849   9.443573
    42  H   11.701059  11.262425   9.968245   9.047810   9.607756
                    6          7          8          9         10
     6  C    0.000000
     7  H    2.144791   0.000000
     8  H    3.396794   2.472717   0.000000
     9  H    3.868675   4.274179   2.464636   0.000000
    10  H    2.140629   4.274140   4.949150   4.294648   0.000000
    11  H    1.080480   2.472629   4.288985   4.949150   2.464658
    12  C    5.794375   7.585062   6.989341   4.910691   4.108332
    13  C    4.404167   6.187319   5.741439   3.897942   2.861475
    14  C    3.790164   5.363744   4.656014   2.719100   2.719177
    15  C    4.833169   6.187315   5.093578   2.861442   3.897999
    16  H    4.078576   5.926671   5.816836   4.327604   2.517966
    17  H    4.862351   5.926693   4.628529   2.517908   4.327697
    18  C    6.543621   8.202536   7.293907   4.992293   4.992394
    19  C    6.137416   7.585049   6.449817   4.108292   4.910711
    20  C    7.271052   8.562171   7.217416   4.880205   6.169127
    21  C    8.522713   9.898189   8.563252   6.183148   7.246200
    22  C    8.861168  10.415961   9.246229   6.832668   7.347479
    23  C    7.946434   9.625499   8.664086   6.306676   6.306766
    24  H    7.293900   8.378057   6.897768   4.687538   6.453727
    25  H    9.382649  10.659556   9.217135   6.880237   8.193415
    26  C    6.694243   8.562153   8.146113   6.169049   4.880252
    27  C    8.035026   9.898159   9.361177   7.246130   6.183172
    28  C    8.624982  10.415872   9.633481   7.347306   6.832664
    29  H    8.765760  10.659561  10.236549   8.193341   6.880309
    30  H    6.486177   8.378006   8.203234   6.453614   4.687531
    31  C   10.236625  11.826899  10.653173   8.225648   8.644085
    32  C   10.039697  11.826851  10.979998   8.643970   8.225671
    33  C   10.736253  12.439544  11.411857   9.003727   9.003783
    34  H   11.809979  13.519513  12.474235  10.055831  10.055888
    35  C   11.330854  12.813298  11.491248   9.070881   9.842563
    36  H   12.312004  13.837816  12.539239  10.107574  10.756721
    37  H   11.400860  12.743316  11.239856   8.816189  10.067453
    38  H   11.262464  12.743322  11.484988   9.127885   9.785732
    39  C   10.960544  12.813294  12.110761   9.842488   9.070947
    40  H   11.996808  13.837730  13.068999  10.756561  10.107560
    41  H   10.800115  12.743322  12.246384  10.067403   8.816248
    42  H   10.944341  12.743284  12.016738   9.785615   9.127937
                   11         12         13         14         15
    11  H    0.000000
    12  C    6.449887   0.000000
    13  C    5.093649   1.413704   0.000000
    14  C    4.656073   2.456449   1.393938   0.000000
    15  C    5.741458   2.823980   2.404180   1.393893   0.000000
    16  H    4.628624   2.149048   1.079979   2.142941   3.382274
    17  H    5.816877   3.903879   3.382238   2.142862   1.079930
    18  C    7.293993   1.436395   2.448516   2.838792   2.448503
    19  C    6.989346   2.485702   2.823900   2.456379   1.413708
    20  C    8.146157   3.761260   4.229089   3.750362   2.472339
    21  C    9.361228   4.255771   5.075566   4.886620   3.735857
    22  C    9.633636   3.795502   4.927120   5.132165   4.270968
    23  C    8.664170   2.477306   3.753753   4.261755   3.753765
    24  H    8.203296   4.630197   4.855256   4.091727   2.702474
    25  H   10.236582   5.334554   6.121898   5.833973   4.594206
    26  C    7.217499   1.405288   2.472344   3.750423   4.229152
    27  C    8.563310   2.430257   3.735839   4.886663   5.075634
    28  C    9.246240   2.857448   4.270867   5.132097   4.927069
    29  H    9.217255   3.395736   4.594224   5.834035   6.121955
    30  H    6.897828   2.148561   2.702453   4.091752   4.855260
    31  C   10.980105   4.936620   6.186269   6.514775   5.695039
    32  C   10.653212   4.281942   5.694972   6.514749   6.186271
    33  C   11.411920   5.110423   6.482530   7.075800   6.482576
    34  H   12.474301   6.163564   7.546425   8.155769   7.546472
    35  C   12.110817   6.317925   7.481496   7.626192   6.626000
    36  H   13.069144   7.118920   8.354011   8.598129   7.654400
    37  H   12.246413   6.568393   7.647547   7.675244   6.600077
    38  H   12.016830   6.567914   7.646901   7.675237   6.600800
    39  C   11.491344   5.238085   6.625992   7.626227   7.481550
    40  H   12.539254   6.252841   7.654307   8.598071   8.353969
    41  H   11.239954   5.264714   6.600077   7.675292   7.647605
    42  H   11.485070   5.265272   6.600788   7.675262   7.646942
                   16         17         18         19         20
    16  H    0.000000
    17  H    4.273170   0.000000
    18  C    3.423085   3.423016   0.000000
    19  C    3.903846   2.149042   1.436285   0.000000
    20  C    5.309030   2.694574   2.448381   1.405306   0.000000
    21  C    6.129680   4.073187   2.819434   2.430283   1.384267
    22  C    5.887166   4.891933   2.478800   2.857543   2.446169
    23  C    4.620967   4.620932   1.422963   2.477270   2.830820
    24  H    5.919237   2.473596   3.426246   2.148632   1.080170
    25  H    7.184618   4.745597   3.898299   3.395753   2.124014
    26  C    2.694569   5.309046   2.448513   3.761257   4.896893
    27  C    4.073162   6.129704   2.819566   4.255793   5.095231
    28  C    4.891868   5.887073   2.478763   3.795406   4.275110
    29  H    4.745622   7.184627   3.898399   5.334543   6.152772
    30  H    2.473566   5.919195   3.426315   4.630128   5.857132
    31  C    7.079323   6.304164   3.763048   4.282003   3.767806
    32  C    6.304121   7.079290   3.763046   4.936590   5.107319
    33  C    7.234089   7.234113   4.237009   5.110454   4.891791
    34  H    8.272030   8.272057   5.316977   6.163598   5.851767
    35  C    8.432612   7.046776   5.033047   5.238101   4.360846
    36  H    9.260233   8.114486   5.915685   6.252940   5.437041
    37  H    8.628823   6.925758   5.236974   5.264732   4.267667
    38  H    8.629912   6.924413   5.236966   5.265290   4.268047
    39  C    7.046781   8.432626   5.033114   6.317938   6.603047
    40  H    8.114417   9.260150   5.915646   7.118839   7.236911
    41  H    6.925785   8.628852   5.237064   6.568402   6.971019
    42  H    6.924394   8.629894   5.237029   6.567914   6.970747
                   21         22         23         24         25
    21  C    0.000000
    22  C    1.415605   0.000000
    23  C    2.455343   1.444341   0.000000
    24  H    2.136891   3.419080   3.910988   0.000000
    25  H    1.079011   2.162735   3.437776   2.436942   0.000000
    26  C    5.095206   4.275217   2.830910   5.857194   6.152799
    27  C    4.910275   3.785691   2.455478   6.147918   5.882267
    28  C    3.785561   2.510436   1.444323   5.355279   4.666053
    29  H    5.882197   4.666096   3.437844   7.212635   6.809482
    30  H    6.147835   5.355332   3.911023   6.767486   7.212600
    31  C    2.504733   1.424989   2.459369   4.638888   2.750687
    32  C    4.265507   2.850519   2.459374   6.160289   4.908997
    33  C    3.762194   2.446148   2.814046   5.852600   4.130445
    34  H    4.634411   3.418302   3.894014   6.762656   4.824700
    35  C    2.976667   2.554439   3.865376   4.977982   2.621268
    36  H    4.053438   3.470687   4.641615   6.068352   3.698973
    37  H    2.950460   2.854031   4.208215   4.755434   2.415604
    38  H    2.950569   2.854128   4.208206   4.755656   2.415397
    39  C    5.788850   4.373597   3.865441   7.665154   6.407494
    40  H    6.269305   4.872401   4.641570   8.267459   6.738266
    41  H    6.258397   4.870381   4.208301   8.037418   6.933852
    42  H    6.258306   4.870282   4.208265   8.037249   6.933887
                   26         27         28         29         30
    26  C    0.000000
    27  C    1.384244   0.000000
    28  C    2.446147   1.415675   0.000000
    29  H    2.124032   1.078977   2.162764   0.000000
    30  H    1.080115   2.136829   3.419035   2.436981   0.000000
    31  C    5.107364   4.265587   2.850525   4.908982   6.160286
    32  C    3.767778   2.504747   1.425021   2.750627   4.638835
    33  C    4.891768   3.762201   2.446143   4.130351   5.852536
    34  H    5.851739   4.634411   3.418314   4.824596   6.762591
    35  C    6.603052   5.788898   4.373572   6.407453   7.665111
    36  H    7.237015   6.269450   4.872495   6.738317   8.267520
    37  H    6.971014   6.258439   4.870331   6.933802   8.037368
    38  H    6.970777   6.258369   4.870266   6.933870   8.037225
    39  C    4.360857   2.976700   2.554544   2.621233   4.977985
    40  H    5.436982   4.053403   3.470696   3.698890   6.068296
    41  H    4.267698   2.950498   2.854162   2.415616   4.755456
    42  H    4.268045   2.950600   2.854220   2.415375   4.755664
                   31         32         33         34         35
    31  C    0.000000
    32  C    2.427801   0.000000
    33  C    1.389035   1.388991   0.000000
    34  H    2.134004   2.133983   1.079968   0.000000
    35  C    1.523494   3.809075   2.513252   2.685477   0.000000
    36  H    2.182483   4.009192   2.620655   2.332497   1.090414
    37  H    2.159825   4.441422   3.227472   3.438481   1.090277
    38  H    2.159825   4.441401   3.227453   3.438467   1.090328
    39  C    3.809077   1.523528   2.513189   2.685394   5.020171
    40  H    4.009090   2.182432   2.620507   2.332339   4.957356
    41  H    4.441438   2.159872   3.227422   3.438415   5.686165
    42  H    4.441400   2.159860   3.227401   3.438399   5.686124
                   36         37         38         39         40
    36  H    0.000000
    37  H    1.760901   0.000000
    38  H    1.760874   1.769263   0.000000
    39  C    4.957436   5.686155   5.686135   0.000000
    40  H    4.658574   5.656903   5.656891   1.090354   0.000000
    41  H    5.656988   6.451062   6.203666   1.090350   1.760905
    42  H    5.656970   6.203645   6.451021   1.090383   1.760912
                   41         42
    41  H    0.000000
    42  H    1.769433   0.000000
 Stoichiometry    C24H18
 Framework group  C1[X(C24H18)]
 Deg. of freedom   120
 Full point group                 C1      NOp   1
 Largest Abelian subgroup         C1      NOp   1
 Largest concise Abelian subgroup C1      NOp   1
                         Standard orientation:                         
 ---------------------------------------------------------------------
 Center     Atomic      Atomic             Coordinates (Angstroms)
 Number     Number       Type             X           Y           Z
 ---------------------------------------------------------------------
      1          6           0       -6.582856   -0.000030   -0.000002
      2          6           0       -5.891875   -0.880664    0.828389
      3          6           0       -4.499102   -0.879244    0.826141
      4          6           0       -3.788496   -0.000014    0.000022
      5          6           0       -4.499134    0.879300   -0.826098
      6          6           0       -5.891916    0.880630   -0.828358
      7          1           0       -7.663494    0.000060    0.000036
      8          1           0       -6.432494   -1.560035    1.471456
      9          1           0       -3.967868   -1.557690    1.477999
     10          1           0       -3.967924    1.557789   -1.477977
     11          1           0       -6.432572    1.560041   -1.471420
     12          6           0       -0.180941    1.240107    0.082865
     13          6           0       -1.594057    1.199479    0.079073
     14          6           0       -2.299750   -0.000022   -0.000026
     15          6           0       -1.594089   -1.199489   -0.079150
     16          1           0       -2.135326    2.131272    0.150782
     17          1           0       -2.135340   -2.131247   -0.150722
     18          6           0        0.539042   -0.000049   -0.000008
     19          6           0       -0.180968   -1.240057   -0.082950
     20          6           0        0.541118   -2.442810   -0.165779
     21          6           0        1.925369   -2.449423   -0.166962
     22          6           0        2.676547   -1.252345   -0.085286
     23          6           0        1.962005   -0.000037   -0.000002
     24          1           0        0.000814   -3.375945   -0.229786
     25          1           0        2.437665   -3.396828   -0.232084
     26          6           0        0.541126    2.442844    0.165799
     27          6           0        1.925354    2.449486    0.166942
     28          6           0        2.676479    1.252288    0.085312
     29          1           0        2.437716    3.396814    0.232115
     30          1           0        0.000825    3.375920    0.229761
     31          6           0        4.100937   -1.211086   -0.082624
     32          6           0        4.100902    1.211084    0.082630
     33          6           0        4.776051    0.000034   -0.000001
     34          1           0        5.856019    0.000042    0.000011
     35          6           0        4.901528   -2.504263   -0.170846
     36          1           0        5.976855   -2.323917   -0.158592
     37          1           0        4.664838   -3.154870    0.671409
     38          1           0        4.664844   -3.034403   -1.093747
     39          6           0        4.901548    2.504264    0.170880
     40          1           0        5.976801    2.323846    0.158594
     41          1           0        4.664867    3.154875   -0.671469
     42          1           0        4.664839    3.034375    1.093857
 ---------------------------------------------------------------------
 Rotational constants (GHZ):           0.6464382           0.1219115           0.1046029
 Standard basis: def2TZVP (5D, 7F)
 There are   972 symmetry adapted cartesian basis functions of A   symmetry.
 There are   852 symmetry adapted basis functions of A   symmetry.
   852 basis functions,  1368 primitive gaussians,   972 cartesian basis functions
    81 alpha electrons       81 beta electrons
       nuclear repulsion energy      1795.4191966812 Hartrees.
 NAtoms=   42 NActive=   42 NUniq=   42 SFac= 1.00D+00 NAtFMM=   60 NAOKFM=F Big=F
 Integral buffers will be    131072 words long.
 Raffenetti 2 integral format.
 Two-electron integral symmetry is turned on.
 One-electron integrals computed using PRISM.
   1 Symmetry operations used in ECPInt.
 ECPInt:  NShTT=   56616 NPrTT=  173748 LenC2=   46652 LenP2D=  100974.
 LDataN:  DoStor=T MaxTD1= 6 Len=  172
 Number of processors reduced to  28 by ecpmxn.
 NBasis=   852 RedAO= T EigKep=  3.15D-06  NBF=   852
 NBsUse=   852 1.00D-06 EigRej= -1.00D+00 NBFU=   852
 ExpMin= 9.52D-02 ExpMax= 1.36D+04 ExpMxC= 4.63D+02 IAcc=3 IRadAn=         5 AccDes= 0.00D+00
 Harris functional with IExCor= 1009 and IRadAn=       5 diagonalized for initial guess.
 HarFok:  IExCor= 1009 AccDes= 0.00D+00 IRadAn=         5 IDoV= 1 UseB2=F ITyADJ=14
 ICtDFT=  3500011 ScaDFX=  1.000000  1.000000  1.000000  1.000000
 FoFCou: FMM=F IPFlag=           0 FMFlag=      100000 FMFlg1=           0
         NFxFlg=           0 DoJE=T BraDBF=F KetDBF=T FulRan=T
         wScrn=  0.000000 ICntrl=       500 IOpCl=  0 I1Cent=   200000004 NGrid=           0
         NMat0=    1 NMatS0=      1 NMatT0=    0 NMatD0=    1 NMtDS0=    0 NMtDT0=    0
 Petite list used in FoFCou.
 Requested convergence on RMS density matrix=1.00D-08 within 128 cycles.
 Requested convergence on MAX density matrix=1.00D-06.
 Requested convergence on             energy=1.00D-06.
 No special actions if energy rises.
 Integral accuracy reduced to 1.0D-05 until final iterations.
 Problem detected with inexpensive integrals.
 Switching to full accuracy and repeating last cycle.
 SCF Done:  E(RM062X) =  -925.386474687     A.U. after   14 cycles
            NFock= 14  Conv=0.68D-08     -V/T= 2.0056

 **********************************************************************

            Population analysis using the SCF Density.

 **********************************************************************

 Orbital symmetries:
       Occupied  (A) (A) (A) (A) (A) (A) (A) (A) (A) (A) (A) (A)
                 (A) (A) (A) (A) (A) (A) (A) (A) (A) (A) (A) (A)
                 (A) (A) (A) (A) (A) (A) (A) (A) (A) (A) (A) (A)
                 (A) (A) (A) (A) (A) (A) (A) (A) (A) (A) (A) (A)
                 (A) (A) (A) (A) (A) (A) (A) (A) (A) (A) (A) (A)
                 (A) (A) (A) (A) (A) (A) (A) (A) (A) (A) (A) (A)
                 (A) (A) (A) (A) (A) (A) (A) (A) (A)
       Virtual   (A) (A) (A) (A) (A) (A) (A) (A) (A) (A) (A) (A)
                 (A) (A) (A) (A) (A) (A) (A) (A) (A) (A) (A) (A)
                 (A) (A) (A) (A) (A) (A) (A) (A) (A) (A) (A) (A)
                 (A) (A) (A) (A) (A) (A) (A) (A) (A) (A) (A) (A)
                 (A) (A) (A) (A) (A) (A) (A) (A) (A) (A) (A) (A)
                 (A) (A) (A) (A) (A) (A) (A) (A) (A) (A) (A) (A)
                 (A) (A) (A) (A) (A) (A) (A) (A) (A) (A) (A) (A)
                 (A) (A) (A) (A) (A) (A) (A) (A) (A) (A) (A) (A)
                 (A) (A) (A) (A) (A) (A) (A) (A) (A) (A) (A) (A)
                 (A) (A) (A) (A) (A) (A) (A) (A) (A) (A) (A) (A)
                 (A) (A) (A) (A) (A) (A) (A) (A) (A) (A) (A) (A)
                 (A) (A) (A) (A) (A) (A) (A) (A) (A) (A) (A) (A)
                 (A) (A) (A) (A) (A) (A) (A) (A) (A) (A) (A) (A)
                 (A) (A) (A) (A) (A) (A) (A) (A) (A) (A) (A) (A)
                 (A) (A) (A) (A) (A) (A) (A) (A) (A) (A) (A) (A)
                 (A) (A) (A) (A) (A) (A) (A) (A) (A) (A) (A) (A)
                 (A) (A) (A) (A) (A) (A) (A) (A) (A) (A) (A) (A)
                 (A) (A) (A) (A) (A) (A) (A) (A) (A) (A) (A) (A)
                 (A) (A) (A) (A) (A) (A) (A) (A) (A) (A) (A) (A)
                 (A) (A) (A) (A) (A) (A) (A) (A) (A) (A) (A) (A)
                 (A) (A) (A) (A) (A) (A) (A) (A) (A) (A) (A) (A)
                 (A) (A) (A) (A) (A) (A) (A) (A) (A) (A) (A) (A)
                 (A) (A) (A) (A) (A) (A) (A) (A) (A) (A) (A) (A)
                 (A) (A) (A) (A) (A) (A) (A) (A) (A) (A) (A) (A)
                 (A) (A) (A) (A) (A) (A) (A) (A) (A) (A) (A) (A)
                 (A) (A) (A) (A) (A) (A) (A) (A) (A) (A) (A) (A)
                 (A) (A) (A) (A) (A) (A) (A) (A) (A) (A) (A) (A)
                 (A) (A) (A) (A) (A) (A) (A) (A) (A) (A) (A) (A)
                 (A) (A) (A) (A) (A) (A) (A) (A) (A) (A) (A) (A)
                 (A) (A) (A) (A) (A) (A) (A) (A) (A) (A) (A) (A)
                 (A) (A) (A) (A) (A) (A) (A) (A) (A) (A) (A) (A)
                 (A) (A) (A) (A) (A) (A) (A) (A) (A) (A) (A) (A)
                 (A) (A) (A) (A) (A) (A) (A) (A) (A) (A) (A) (A)
                 (A) (A) (A) (A) (A) (A) (A) (A) (A) (A) (A) (A)
                 (A) (A) (A) (A) (A) (A) (A) (A) (A) (A) (A) (A)
                 (A) (A) (A) (A) (A) (A) (A) (A) (A) (A) (A) (A)
                 (A) (A) (A) (A) (A) (A) (A) (A) (A) (A) (A) (A)
                 (A) (A) (A) (A) (A) (A) (A) (A) (A) (A) (A) (A)
                 (A) (A) (A) (A) (A) (A) (A) (A) (A) (A) (A) (A)
                 (A) (A) (A) (A) (A) (A) (A) (A) (A) (A) (A) (A)
                 (A) (A) (A) (A) (A) (A) (A) (A) (A) (A) (A) (A)
                 (A) (A) (A) (A) (A) (A) (A) (A) (A) (A) (A) (A)
                 (A) (A) (A) (A) (A) (A) (A) (A) (A) (A) (A) (A)
                 (A) (A) (A) (A) (A) (A) (A) (A) (A) (A) (A) (A)
                 (A) (A) (A) (A) (A) (A) (A) (A) (A) (A) (A) (A)
                 (A) (A) (A) (A) (A) (A) (A) (A) (A) (A) (A) (A)
                 (A) (A) (A) (A) (A) (A) (A) (A) (A) (A) (A) (A)
                 (A) (A) (A) (A) (A) (A) (A) (A) (A) (A) (A) (A)
                 (A) (A) (A) (A) (A) (A) (A) (A) (A) (A) (A) (A)
                 (A) (A) (A) (A) (A) (A) (A) (A) (A) (A) (A) (A)
                 (A) (A) (A) (A) (A) (A) (A) (A) (A) (A) (A) (A)
                 (A) (A) (A) (A) (A) (A) (A) (A) (A) (A) (A) (A)
                 (A) (A) (A) (A) (A) (A) (A) (A) (A) (A) (A) (A)
                 (A) (A) (A) (A) (A) (A) (A) (A) (A) (A) (A) (A)
                 (A) (A) (A) (A) (A) (A) (A) (A) (A) (A) (A) (A)
                 (A) (A) (A) (A) (A) (A) (A) (A) (A) (A) (A) (A)
                 (A) (A) (A) (A) (A) (A) (A) (A) (A) (A) (A) (A)
                 (A) (A) (A) (A) (A) (A) (A) (A) (A) (A) (A) (A)
                 (A) (A) (A) (A) (A) (A) (A) (A) (A) (A) (A) (A)
                 (A) (A) (A) (A) (A) (A) (A) (A) (A) (A) (A) (A)
                 (A) (A) (A) (A) (A) (A) (A) (A) (A) (A) (A) (A)
                 (A) (A) (A) (A) (A) (A) (A) (A) (A) (A) (A) (A)
                 (A) (A) (A) (A) (A) (A) (A) (A) (A) (A) (A) (A)
                 (A) (A) (A) (A) (A) (A) (A) (A) (A) (A) (A) (A)
                 (A) (A) (A)
 The electronic state is 1-A.
 Alpha  occ. eigenvalues --  -10.55604 -10.55604 -10.55560 -10.55460 -10.55407
 Alpha  occ. eigenvalues --  -10.55389 -10.55344 -10.55303 -10.55131 -10.55126
 Alpha  occ. eigenvalues --  -10.54611 -10.54611 -10.54447 -10.54446 -10.54403
 Alpha  occ. eigenvalues --  -10.54398 -10.54375 -10.54370 -10.54298 -10.54289
 Alpha  occ. eigenvalues --  -10.54163 -10.53811 -10.53525 -10.53524  -0.99895
 Alpha  occ. eigenvalues --   -0.97149  -0.95313  -0.93566  -0.90997  -0.88262
 Alpha  occ. eigenvalues --   -0.85996  -0.84543  -0.84385  -0.82891  -0.81351
 Alpha  occ. eigenvalues --   -0.78810  -0.76499  -0.72115  -0.71077  -0.70033
 Alpha  occ. eigenvalues --   -0.68612  -0.67404  -0.66853  -0.62083  -0.59836
 Alpha  occ. eigenvalues --   -0.58802  -0.58265  -0.57115  -0.56249  -0.53057
 Alpha  occ. eigenvalues --   -0.52765  -0.51974  -0.51050  -0.50442  -0.49636
 Alpha  occ. eigenvalues --   -0.49589  -0.49012  -0.48688  -0.48181  -0.47374
 Alpha  occ. eigenvalues --   -0.46147  -0.45804  -0.45720  -0.44953  -0.44214
 Alpha  occ. eigenvalues --   -0.43899  -0.43885  -0.41728  -0.41458  -0.40770
 Alpha  occ. eigenvalues --   -0.40389  -0.40269  -0.37757  -0.37111  -0.35851
 Alpha  occ. eigenvalues --   -0.32502  -0.31317  -0.31023  -0.30585  -0.27149
 Alpha  occ. eigenvalues --   -0.23360
 Alpha virt. eigenvalues --   -0.04537  -0.01336   0.01747   0.01860   0.02892
 Alpha virt. eigenvalues --    0.04239   0.07063   0.07890   0.08339   0.09035
 Alpha virt. eigenvalues --    0.09182   0.09781   0.09971   0.11343   0.11538
 Alpha virt. eigenvalues --    0.12869   0.13057   0.13484   0.14083   0.14167
 Alpha virt. eigenvalues --    0.14304   0.14639   0.14914   0.15437   0.16021
 Alpha virt. eigenvalues --    0.16149   0.16266   0.17559   0.17979   0.17982
 Alpha virt. eigenvalues --    0.18650   0.18769   0.19502   0.21092   0.21445
 Alpha virt. eigenvalues --    0.22061   0.22250   0.22987   0.23628   0.24139
 Alpha virt. eigenvalues --    0.24268   0.24841   0.25229   0.25534   0.25663
 Alpha virt. eigenvalues --    0.25917   0.26054   0.26502   0.26905   0.27439
 Alpha virt. eigenvalues --    0.27910   0.28161   0.29126   0.29215   0.29649
 Alpha virt. eigenvalues --    0.29737   0.30162   0.30493   0.31265   0.31614
 Alpha virt. eigenvalues --    0.31696   0.32115   0.32765   0.33072   0.33322
 Alpha virt. eigenvalues --    0.33841   0.34395   0.35229   0.35302   0.35927
 Alpha virt. eigenvalues --    0.36521   0.36801   0.37004   0.37568   0.38457
 Alpha virt. eigenvalues --    0.38476   0.38936   0.38969   0.39450   0.39688
 Alpha virt. eigenvalues --    0.39783   0.40482   0.41112   0.41305   0.41306
 Alpha virt. eigenvalues --    0.42126   0.42644   0.43035   0.43280   0.43377
 Alpha virt. eigenvalues --    0.43459   0.44140   0.44498   0.44670   0.44807
 Alpha virt. eigenvalues --    0.45282   0.45638   0.45717   0.46007   0.46550
 Alpha virt. eigenvalues --    0.47360   0.47368   0.48542   0.48717   0.49073
 Alpha virt. eigenvalues --    0.49402   0.49963   0.51386   0.51497   0.51514
 Alpha virt. eigenvalues --    0.51845   0.52403   0.52425   0.53125   0.53193
 Alpha virt. eigenvalues --    0.53614   0.53880   0.53954   0.55847   0.56066
 Alpha virt. eigenvalues --    0.56221   0.57509   0.57600   0.57916   0.58373
 Alpha virt. eigenvalues --    0.58857   0.59673   0.60022   0.60643   0.61199
 Alpha virt. eigenvalues --    0.61944   0.62474   0.63054   0.64339   0.64360
 Alpha virt. eigenvalues --    0.64579   0.66364   0.66666   0.67139   0.67147
 Alpha virt. eigenvalues --    0.67840   0.68623   0.69093   0.69370   0.69503
 Alpha virt. eigenvalues --    0.69909   0.70426   0.70874   0.71871   0.72375
 Alpha virt. eigenvalues --    0.73585   0.73690   0.74119   0.74542   0.74873
 Alpha virt. eigenvalues --    0.75466   0.75624   0.76042   0.77061   0.77365
 Alpha virt. eigenvalues --    0.77893   0.78141   0.78923   0.79140   0.79656
 Alpha virt. eigenvalues --    0.79945   0.80487   0.80661   0.81136   0.81999
 Alpha virt. eigenvalues --    0.82047   0.82268   0.83103   0.84094   0.84268
 Alpha virt. eigenvalues --    0.84307   0.84828   0.86316   0.86429   0.87280
 Alpha virt. eigenvalues --    0.87769   0.88441   0.88763   0.89481   0.90079
 Alpha virt. eigenvalues --    0.90972   0.90990   0.91691   0.92072   0.92229
 Alpha virt. eigenvalues --    0.92500   0.93420   0.94175   0.94713   0.95364
 Alpha virt. eigenvalues --    0.95792   0.96877   0.97670   0.97957   0.98541
 Alpha virt. eigenvalues --    0.99573   1.00909   1.01938   1.03790   1.04021
 Alpha virt. eigenvalues --    1.04311   1.04690   1.04793   1.05814   1.06155
 Alpha virt. eigenvalues --    1.06695   1.07964   1.08721   1.09575   1.10005
 Alpha virt. eigenvalues --    1.10083   1.11090   1.12181   1.12932   1.14942
 Alpha virt. eigenvalues --    1.15222   1.15914   1.16692   1.18014   1.18229
 Alpha virt. eigenvalues --    1.18863   1.19953   1.20230   1.21516   1.22379
 Alpha virt. eigenvalues --    1.22696   1.23818   1.24096   1.24797   1.24994
 Alpha virt. eigenvalues --    1.25904   1.26082   1.26473   1.26658   1.27158
 Alpha virt. eigenvalues --    1.29537   1.29766   1.30710   1.30829   1.31715
 Alpha virt. eigenvalues --    1.32499   1.33428   1.33747   1.34547   1.35124
 Alpha virt. eigenvalues --    1.35683   1.36132   1.37097   1.37179   1.38413
 Alpha virt. eigenvalues --    1.39115   1.39899   1.40356   1.41081   1.41378
 Alpha virt. eigenvalues --    1.42010   1.44437   1.44775   1.45725   1.47016
 Alpha virt. eigenvalues --    1.47631   1.47712   1.48800   1.49298   1.49409
 Alpha virt. eigenvalues --    1.50003   1.50272   1.50707   1.50968   1.52239
 Alpha virt. eigenvalues --    1.52295   1.53619   1.54197   1.54992   1.55998
 Alpha virt. eigenvalues --    1.56510   1.57060   1.57451   1.57516   1.57607
 Alpha virt. eigenvalues --    1.58243   1.58473   1.58958   1.59548   1.60435
 Alpha virt. eigenvalues --    1.60733   1.61351   1.61922   1.62773   1.62797
 Alpha virt. eigenvalues --    1.63913   1.64881   1.64968   1.66290   1.66766
 Alpha virt. eigenvalues --    1.67775   1.67921   1.68368   1.70412   1.70495
 Alpha virt. eigenvalues --    1.70878   1.71964   1.72210   1.73116   1.73200
 Alpha virt. eigenvalues --    1.74669   1.75075   1.75309   1.75554   1.75849
 Alpha virt. eigenvalues --    1.76406   1.77232   1.77364   1.77833   1.78636
 Alpha virt. eigenvalues --    1.78913   1.79028   1.80255   1.82277   1.84059
 Alpha virt. eigenvalues --    1.84190   1.85239   1.85505   1.86094   1.89949
 Alpha virt. eigenvalues --    1.90225   1.90237   1.90971   1.91982   1.93702
 Alpha virt. eigenvalues --    1.93704   1.95337   1.95354   1.97076   1.98028
 Alpha virt. eigenvalues --    1.99364   1.99945   2.00757   2.02160   2.02835
 Alpha virt. eigenvalues --    2.04323   2.04397   2.04600   2.06074   2.06817
 Alpha virt. eigenvalues --    2.07329   2.07556   2.09660   2.09975   2.10553
 Alpha virt. eigenvalues --    2.11780   2.12486   2.13601   2.14302   2.14470
 Alpha virt. eigenvalues --    2.15105   2.17091   2.17354   2.18367   2.19716
 Alpha virt. eigenvalues --    2.20459   2.20690   2.21521   2.22298   2.23244
 Alpha virt. eigenvalues --    2.23409   2.23823   2.24580   2.25015   2.25419
 Alpha virt. eigenvalues --    2.26557   2.27005   2.27842   2.27918   2.29953
 Alpha virt. eigenvalues --    2.30124   2.32213   2.33093   2.33216   2.34152
 Alpha virt. eigenvalues --    2.35074   2.35562   2.36065   2.36692   2.38925
 Alpha virt. eigenvalues --    2.39497   2.39500   2.40185   2.42951   2.43077
 Alpha virt. eigenvalues --    2.43344   2.44438   2.47512   2.47678   2.47907
 Alpha virt. eigenvalues --    2.48926   2.49767   2.50042   2.50288   2.51322
 Alpha virt. eigenvalues --    2.53198   2.53339   2.54218   2.54470   2.55305
 Alpha virt. eigenvalues --    2.56255   2.57073   2.58666   2.59059   2.59652
 Alpha virt. eigenvalues --    2.60026   2.60372   2.62001   2.62405   2.62563
 Alpha virt. eigenvalues --    2.63440   2.63875   2.64092   2.65128   2.65975
 Alpha virt. eigenvalues --    2.65981   2.67199   2.67545   2.68231   2.68761
 Alpha virt. eigenvalues --    2.69476   2.69649   2.70502   2.71103   2.71202
 Alpha virt. eigenvalues --    2.71913   2.71999   2.73859   2.74200   2.75622
 Alpha virt. eigenvalues --    2.75682   2.76808   2.77016   2.77797   2.78017
 Alpha virt. eigenvalues --    2.79308   2.79910   2.80353   2.80599   2.81080
 Alpha virt. eigenvalues --    2.81796   2.82540   2.83305   2.83850   2.84322
 Alpha virt. eigenvalues --    2.85010   2.85404   2.86195   2.86607   2.87252
 Alpha virt. eigenvalues --    2.87308   2.87898   2.88126   2.88981   2.89331
 Alpha virt. eigenvalues --    2.90746   2.91315   2.91983   2.92384   2.92466
 Alpha virt. eigenvalues --    2.92597   2.93788   2.94348   2.95073   2.95433
 Alpha virt. eigenvalues --    2.95940   2.95989   2.97092   2.97115   2.97627
 Alpha virt. eigenvalues --    2.98673   2.98697   3.00556   3.00687   3.01441
 Alpha virt. eigenvalues --    3.01940   3.02048   3.02722   3.03619   3.04009
 Alpha virt. eigenvalues --    3.04527   3.05113   3.05358   3.05705   3.06288
 Alpha virt. eigenvalues --    3.07151   3.07357   3.08810   3.09176   3.09236
 Alpha virt. eigenvalues --    3.09922   3.10489   3.10891   3.12135   3.12675
 Alpha virt. eigenvalues --    3.13284   3.13289   3.14096   3.15502   3.15581
 Alpha virt. eigenvalues --    3.15650   3.15967   3.16035   3.16963   3.17809
 Alpha virt. eigenvalues --    3.18047   3.18127   3.19492   3.19542   3.20099
 Alpha virt. eigenvalues --    3.20384   3.21120   3.21511   3.23090   3.23597
 Alpha virt. eigenvalues --    3.24377   3.25229   3.25819   3.26107   3.26513
 Alpha virt. eigenvalues --    3.27682   3.27701   3.28563   3.28578   3.29167
 Alpha virt. eigenvalues --    3.29649   3.29650   3.30463   3.30536   3.30894
 Alpha virt. eigenvalues --    3.31179   3.31430   3.32190   3.32351   3.33868
 Alpha virt. eigenvalues --    3.34421   3.34610   3.34933   3.35221   3.35476
 Alpha virt. eigenvalues --    3.37101   3.37220   3.37630   3.39561   3.40463
 Alpha virt. eigenvalues --    3.40808   3.40844   3.41274   3.42062   3.42209
 Alpha virt. eigenvalues --    3.42661   3.43925   3.44534   3.45026   3.45525
 Alpha virt. eigenvalues --    3.46025   3.46218   3.47416   3.47602   3.48430
 Alpha virt. eigenvalues --    3.48888   3.49655   3.50156   3.50500   3.52043
 Alpha virt. eigenvalues --    3.52279   3.52459   3.52486   3.52760   3.53068
 Alpha virt. eigenvalues --    3.55031   3.55748   3.56291   3.56508   3.57388
 Alpha virt. eigenvalues --    3.58585   3.59113   3.59987   3.61331   3.61694
 Alpha virt. eigenvalues --    3.62004   3.63510   3.63884   3.65190   3.65230
 Alpha virt. eigenvalues --    3.66300   3.66978   3.67788   3.68256   3.68799
 Alpha virt. eigenvalues --    3.69760   3.70338   3.70374   3.71008   3.72480
 Alpha virt. eigenvalues --    3.75007   3.75328   3.76561   3.78723   3.79646
 Alpha virt. eigenvalues --    3.80709   3.81335   3.81981   3.82427   3.83445
 Alpha virt. eigenvalues --    3.83511   3.84621   3.85040   3.85564   3.87127
 Alpha virt. eigenvalues --    3.89449   3.91025   3.92241   3.94427   3.94952
 Alpha virt. eigenvalues --    3.95345   3.96249   3.97243   3.97407   3.98185
 Alpha virt. eigenvalues --    3.99319   4.00384   4.02860   4.03943   4.04613
 Alpha virt. eigenvalues --    4.04899   4.05612   4.06205   4.07925   4.08215
 Alpha virt. eigenvalues --    4.08586   4.08734   4.09966   4.11176   4.12140
 Alpha virt. eigenvalues --    4.13216   4.14689   4.16504   4.16825   4.17833
 Alpha virt. eigenvalues --    4.17914   4.18288   4.18329   4.19296   4.19860
 Alpha virt. eigenvalues --    4.20686   4.21775   4.22785   4.23178   4.23841
 Alpha virt. eigenvalues --    4.25294   4.26184   4.26230   4.26710   4.28105
 Alpha virt. eigenvalues --    4.28782   4.29705   4.30763   4.30948   4.31231
 Alpha virt. eigenvalues --    4.31404   4.33924   4.34000   4.36052   4.37342
 Alpha virt. eigenvalues --    4.37551   4.38000   4.38387   4.39227   4.40048
 Alpha virt. eigenvalues --    4.43482   4.43996   4.44578   4.44937   4.47427
 Alpha virt. eigenvalues --    4.48065   4.49038   4.50122   4.51541   4.52140
 Alpha virt. eigenvalues --    4.56393   4.57805   4.58836   4.59618   4.59863
 Alpha virt. eigenvalues --    4.62245   4.64366   4.64547   4.65042   4.66767
 Alpha virt. eigenvalues --    4.67346   4.69345   4.73161   4.74988   4.78725
 Alpha virt. eigenvalues --    4.81022   4.84013   4.84578   4.85020   4.86006
 Alpha virt. eigenvalues --    4.87518   4.89243   4.90678   4.91475   4.92349
 Alpha virt. eigenvalues --    4.96458   4.99232   5.02187   5.02763   5.06590
 Alpha virt. eigenvalues --    5.07890   5.11238   5.13162   5.17376   5.18045
 Alpha virt. eigenvalues --    5.18799   5.18917   5.24548   5.25371   5.29277
 Alpha virt. eigenvalues --    5.31381   5.34458   5.36681   5.38108   5.38807
 Alpha virt. eigenvalues --    5.40224   5.42548   5.48608   5.50087   5.54849
 Alpha virt. eigenvalues --    5.63936   5.64468   5.75008   5.78955   5.80635
 Alpha virt. eigenvalues --    5.82169   6.20925  22.02245  22.32070  22.55883
 Alpha virt. eigenvalues --   22.56031  22.68073  22.70995  22.77360  22.82350
 Alpha virt. eigenvalues --   22.84834  22.89371  22.89768  22.93470  22.99717
 Alpha virt. eigenvalues --   23.07394  23.07413  23.13388  23.15505  23.16720
 Alpha virt. eigenvalues --   23.27959  23.31944  23.38667  23.47234  23.67420
 Alpha virt. eigenvalues --   24.17762
          Condensed to atoms (all electrons):
               1          2          3          4          5          6
     1  C    4.879500   0.524172  -0.046551  -0.040107  -0.046559   0.524177
     2  C    0.524172   4.900555   0.508272  -0.055126  -0.042367  -0.042763
     3  C   -0.046551   0.508272   5.023143   0.492339  -0.033969  -0.042363
     4  C   -0.040107  -0.055126   0.492339   5.050973   0.492326  -0.055124
     5  C   -0.046559  -0.042367  -0.033969   0.492326   5.023155   0.508298
     6  C    0.524177  -0.042763  -0.042363  -0.055124   0.508298   4.900529
     7  H    0.408711  -0.033146   0.003521   0.001237   0.003523  -0.033156
     8  H   -0.030876   0.407855  -0.030833   0.004396   0.000185   0.003352
     9  H    0.003303  -0.026398   0.398670  -0.038416   0.006195  -0.000625
    10  H    0.003302  -0.000625   0.006193  -0.038406   0.398657  -0.026395
    11  H   -0.030876   0.003352   0.000185   0.004395  -0.030829   0.407844
    12  C   -0.000038   0.000128  -0.000442   0.003213   0.004310  -0.000165
    13  C    0.000342  -0.001167   0.005831  -0.085272   0.007198   0.000711
    14  C   -0.003864   0.006444  -0.084548   0.257261  -0.084555   0.006442
    15  C    0.000342   0.000712   0.007189  -0.085255   0.005836  -0.001167
    16  H   -0.000017  -0.000165   0.000325  -0.000615   0.002423   0.000415
    17  H   -0.000017   0.000415   0.002425  -0.000618   0.000325  -0.000166
    18  C    0.000001  -0.000010  -0.000119   0.008313  -0.000118  -0.000010
    19  C   -0.000037  -0.000166   0.004316   0.003205  -0.000445   0.000128
    20  C    0.000000  -0.000012   0.000371  -0.002606   0.000130  -0.000002
    21  C    0.000000   0.000000  -0.000000   0.000048  -0.000002  -0.000000
    22  C    0.000000   0.000000   0.000005  -0.000048   0.000000  -0.000000
    23  C   -0.000000  -0.000000  -0.000001  -0.000400  -0.000001  -0.000000
    24  H   -0.000000  -0.000001   0.000052   0.000137   0.000004   0.000000
    25  H   -0.000000  -0.000000  -0.000000   0.000001   0.000000   0.000000
    26  C    0.000000  -0.000002   0.000130  -0.002601   0.000371  -0.000012
    27  C    0.000000  -0.000000  -0.000002   0.000048   0.000000   0.000000
    28  C    0.000000  -0.000000   0.000000  -0.000048   0.000005   0.000000
    29  H   -0.000000   0.000000   0.000000   0.000001  -0.000000  -0.000000
    30  H   -0.000000   0.000000   0.000004   0.000137   0.000052  -0.000001
    31  C   -0.000000  -0.000000   0.000000  -0.000001   0.000000   0.000000
    32  C   -0.000000   0.000000   0.000000  -0.000001   0.000000  -0.000000
    33  C    0.000000  -0.000000  -0.000000  -0.000000  -0.000000  -0.000000
    34  H    0.000000   0.000000  -0.000000   0.000000  -0.000000   0.000000
    35  C   -0.000000  -0.000000   0.000000  -0.000000   0.000000   0.000000
    36  H    0.000000  -0.000000  -0.000000   0.000000   0.000000  -0.000000
    37  H   -0.000000  -0.000000  -0.000000   0.000000  -0.000000  -0.000000
    38  H    0.000000  -0.000000   0.000000  -0.000000   0.000000   0.000000
    39  C   -0.000000   0.000000   0.000000  -0.000000   0.000000  -0.000000
    40  H    0.000000  -0.000000   0.000000   0.000000  -0.000000  -0.000000
    41  H   -0.000000  -0.000000  -0.000000   0.000000  -0.000000  -0.000000
    42  H    0.000000   0.000000   0.000000  -0.000000   0.000000  -0.000000
               7          8          9         10         11         12
     1  C    0.408711  -0.030876   0.003303   0.003302  -0.030876  -0.000038
     2  C   -0.033146   0.407855  -0.026398  -0.000625   0.003352   0.000128
     3  C    0.003521  -0.030833   0.398670   0.006193   0.000185  -0.000442
     4  C    0.001237   0.004396  -0.038416  -0.038406   0.004395   0.003213
     5  C    0.003523   0.000185   0.006195   0.398657  -0.030829   0.004310
     6  C   -0.033156   0.003352  -0.000625  -0.026395   0.407844  -0.000165
     7  H    0.515673  -0.003939  -0.000270  -0.000270  -0.003941   0.000000
     8  H   -0.003939   0.508831  -0.003454   0.000061  -0.000281   0.000000
     9  H   -0.000270  -0.003454   0.482869  -0.000240   0.000061  -0.000034
    10  H   -0.000270   0.000061  -0.000240   0.482862  -0.003454   0.000728
    11  H   -0.003941  -0.000281   0.000061  -0.003454   0.508841   0.000001
    12  C    0.000000   0.000000  -0.000034   0.000728   0.000001   4.900278
    13  C   -0.000009   0.000034   0.000829   0.002335   0.000009   0.459115
    14  C    0.000100  -0.000005   0.006101   0.006107  -0.000006  -0.048727
    15  C   -0.000009   0.000009   0.002337   0.000828   0.000034  -0.046067
    16  H   -0.000000   0.000002   0.000057  -0.001691   0.000043  -0.015741
    17  H   -0.000000   0.000043  -0.001690   0.000057   0.000002  -0.001369
    18  C    0.000000   0.000000  -0.000168  -0.000169   0.000000   0.392530
    19  C    0.000000   0.000001   0.000728  -0.000034   0.000000  -0.071976
    20  C   -0.000000   0.000000   0.000200   0.000016   0.000000   0.016388
    21  C   -0.000000   0.000000  -0.000003  -0.000000  -0.000000   0.000517
    22  C   -0.000000   0.000000   0.000001   0.000000  -0.000000   0.010451
    23  C    0.000000   0.000000   0.000000   0.000000   0.000000  -0.073440
    24  H   -0.000000   0.000000   0.000033   0.000000   0.000000  -0.000508
    25  H    0.000000   0.000000  -0.000000   0.000000   0.000000   0.000103
    26  C   -0.000000   0.000000   0.000015   0.000200   0.000000   0.467529
    27  C   -0.000000  -0.000000  -0.000000  -0.000003   0.000000  -0.042900
    28  C   -0.000000  -0.000000   0.000000   0.000001   0.000000  -0.031120
    29  H    0.000000   0.000000   0.000000  -0.000000   0.000000   0.000840
    30  H   -0.000000   0.000000   0.000000   0.000033   0.000000  -0.032976
    31  C   -0.000000   0.000000   0.000000   0.000000   0.000000  -0.001751
    32  C   -0.000000   0.000000   0.000000   0.000000   0.000000   0.000078
    33  C   -0.000000  -0.000000  -0.000000  -0.000000  -0.000000  -0.001089
    34  H    0.000000  -0.000000  -0.000000  -0.000000  -0.000000   0.000017
    35  C   -0.000000   0.000000   0.000000   0.000000   0.000000  -0.000104
    36  H    0.000000   0.000000  -0.000000   0.000000   0.000000   0.000004
    37  H   -0.000000   0.000000  -0.000000  -0.000000   0.000000  -0.000009
    38  H    0.000000  -0.000000   0.000000   0.000000  -0.000000  -0.000005
    39  C   -0.000000   0.000000   0.000000   0.000000   0.000000  -0.000406
    40  H    0.000000   0.000000   0.000000  -0.000000   0.000000   0.000002
    41  H   -0.000000   0.000000  -0.000000  -0.000000   0.000000  -0.000031
    42  H    0.000000  -0.000000   0.000000   0.000000  -0.000000  -0.000143
              13         14         15         16         17         18
     1  C    0.000342  -0.003864   0.000342  -0.000017  -0.000017   0.000001
     2  C   -0.001167   0.006444   0.000712  -0.000165   0.000415  -0.000010
     3  C    0.005831  -0.084548   0.007189   0.000325   0.002425  -0.000119
     4  C   -0.085272   0.257261  -0.085255  -0.000615  -0.000618   0.008313
     5  C    0.007198  -0.084555   0.005836   0.002423   0.000325  -0.000118
     6  C    0.000711   0.006442  -0.001167   0.000415  -0.000166  -0.000010
     7  H   -0.000009   0.000100  -0.000009  -0.000000  -0.000000   0.000000
     8  H    0.000034  -0.000005   0.000009   0.000002   0.000043   0.000000
     9  H    0.000829   0.006101   0.002337   0.000057  -0.001690  -0.000168
    10  H    0.002335   0.006107   0.000828  -0.001691   0.000057  -0.000169
    11  H    0.000009  -0.000006   0.000034   0.000043   0.000002   0.000000
    12  C    0.459115  -0.048727  -0.046067  -0.015741  -0.001369   0.392530
    13  C    5.343705   0.490322  -0.098431   0.360055   0.009594  -0.071192
    14  C    0.490322   4.971111   0.490338  -0.023556  -0.023568  -0.038005
    15  C   -0.098431   0.490338   5.343744   0.009591   0.360078  -0.071246
    16  H    0.360055  -0.023556   0.009591   0.484833  -0.000273   0.012033
    17  H    0.009594  -0.023568   0.360078  -0.000273   0.484835   0.012044
    18  C   -0.071192  -0.038005  -0.071246   0.012033   0.012044   5.242516
    19  C   -0.046050  -0.048726   0.459128  -0.001369  -0.015750   0.392488
    20  C    0.007297   0.007749  -0.132669  -0.000034  -0.000484  -0.039139
    21  C   -0.001017  -0.001285   0.010474   0.000009   0.000075  -0.072116
    22  C   -0.001990   0.000087  -0.000691   0.000029   0.000176  -0.068991
    23  C    0.016131  -0.001600   0.016148  -0.000325  -0.000325   0.387971
    24  H    0.000423   0.000650  -0.007983  -0.000004   0.006408   0.017256
    25  H    0.000005   0.000032  -0.000178   0.000000  -0.000035   0.000680
    26  C   -0.132632   0.007744   0.007297  -0.000482  -0.000034  -0.039181
    27  C    0.010456  -0.001283  -0.001017   0.000076   0.000009  -0.072081
    28  C   -0.000677   0.000087  -0.001988   0.000176   0.000029  -0.069015
    29  H   -0.000177   0.000032   0.000005  -0.000035   0.000000   0.000680
    30  H   -0.007982   0.000649   0.000423   0.006408  -0.000004   0.017253
    31  C   -0.000033   0.000055  -0.000467   0.000000   0.000001   0.014022
    32  C   -0.000467   0.000055  -0.000033   0.000001   0.000000   0.014021
    33  C    0.000018  -0.000032   0.000018   0.000000   0.000000  -0.006781
    34  H    0.000000   0.000000   0.000000  -0.000000  -0.000000   0.000231
    35  C   -0.000001   0.000003  -0.000047   0.000000   0.000000  -0.000370
    36  H    0.000000   0.000000   0.000000  -0.000000  -0.000000   0.000011
    37  H    0.000000   0.000000  -0.000002   0.000000   0.000000  -0.000064
    38  H    0.000000  -0.000000  -0.000004  -0.000000  -0.000000  -0.000027
    39  C   -0.000047   0.000003  -0.000001   0.000000   0.000000  -0.000371
    40  H    0.000000   0.000000   0.000000  -0.000000  -0.000000   0.000011
    41  H   -0.000002   0.000000   0.000000   0.000000   0.000000  -0.000063
    42  H   -0.000004  -0.000000   0.000000  -0.000000  -0.000000  -0.000029
              19         20         21         22         23         24
     1  C   -0.000037   0.000000   0.000000   0.000000  -0.000000  -0.000000
     2  C   -0.000166  -0.000012   0.000000   0.000000  -0.000000  -0.000001
     3  C    0.004316   0.000371  -0.000000   0.000005  -0.000001   0.000052
     4  C    0.003205  -0.002606   0.000048  -0.000048  -0.000400   0.000137
     5  C   -0.000445   0.000130  -0.000002   0.000000  -0.000001   0.000004
     6  C    0.000128  -0.000002  -0.000000  -0.000000  -0.000000   0.000000
     7  H    0.000000  -0.000000  -0.000000  -0.000000   0.000000  -0.000000
     8  H    0.000001   0.000000   0.000000   0.000000   0.000000   0.000000
     9  H    0.000728   0.000200  -0.000003   0.000001   0.000000   0.000033
    10  H   -0.000034   0.000016  -0.000000   0.000000   0.000000   0.000000
    11  H    0.000000   0.000000  -0.000000  -0.000000   0.000000   0.000000
    12  C   -0.071976   0.016388   0.000517   0.010451  -0.073440  -0.000508
    13  C   -0.046050   0.007297  -0.001017  -0.001990   0.016131   0.000423
    14  C   -0.048726   0.007749  -0.001285   0.000087  -0.001600   0.000650
    15  C    0.459128  -0.132669   0.010474  -0.000691   0.016148  -0.007983
    16  H   -0.001369  -0.000034   0.000009   0.000029  -0.000325  -0.000004
    17  H   -0.015750  -0.000484   0.000075   0.000176  -0.000325   0.006408
    18  C    0.392488  -0.039139  -0.072116  -0.068991   0.387971   0.017256
    19  C    4.900336   0.467436  -0.042849  -0.031148  -0.073390  -0.032988
    20  C    0.467436   5.062952   0.564058  -0.066250  -0.045941   0.390054
    21  C   -0.042849   0.564058   5.130442   0.440687  -0.047824  -0.024388
    22  C   -0.031148  -0.066250   0.440687   5.065099   0.413184   0.004107
    23  C   -0.073390  -0.045941  -0.047824   0.413184   5.151099  -0.000839
    24  H   -0.032988   0.390054  -0.024388   0.004107  -0.000839   0.516281
    25  H    0.000841  -0.009479   0.385320  -0.025810   0.008951  -0.003498
    26  C    0.016375   0.000592  -0.000701   0.004001  -0.045892  -0.000013
    27  C    0.000522  -0.000700   0.000258   0.010723  -0.047814   0.000006
    28  C    0.010442   0.003999   0.010721  -0.040403   0.413267   0.000071
    29  H    0.000103  -0.000004   0.000002  -0.000531   0.008944   0.000000
    30  H   -0.000508  -0.000013   0.000006   0.000072  -0.000839  -0.000001
[...]
 89,-0.00000093,0.00004647,0.00002116,-0.00004452,-0.00004246,-0.000134
 66,0.00013531,0.00016768,-0.00002121,-0.00013778,-0.00010103,0.0001902
 8,-0.00008085,0.00000202,0.00000334,0.00000250,0.00000323,0.00001063,0
 .00000801,0.00003851,0.00001846,-0.00003832,0.00017357,-0.00013882,0.0
 0018495,-0.00049426,0.00050432,-0.00004840,0.00021839,-0.00044125,0.00
 024126,0.00005642,0.00176618,-0.00035119,0.00054898,-0.00056964,-0.000
 29136,-0.00001349,-0.00002923,-0.00004745,-0.00022863,0.00071923,0.000
 01030,-0.00007602,0.00001397,0.00003270,0.00000608,-0.00004006,0.00001
 893,-0.00028519,-0.00010791,0.00026336,-0.00000133,0.00000313,-0.00000
 621,0.00000149,-0.00000614,0.00000238,0.00277507,-0.00065924,0.0014114
 7,-0.00000510,0.00019255,0.00003704,0.00016507,-0.00075408,-0.00000224
 ,-0.00023210,-0.00029556,-0.00002855,0.02170288,-0.08863985,-0.2760955
 5,0.00083619,-0.00757461,-0.01722498,0.00047734,-0.00196399,-0.0072720
 8,-0.02576576,0.09796123,0.29928274,-0.00000243,0.00000533,-0.00000651
 ,0.00000093,-0.00000118,-0.00000226,-0.00000223,0.00001296,-0.00000857
 ,0.00001120,-0.00002549,0.00001576,0.00000354,0.00000671,0.,0.00000077
 ,-0.00000056,-0.00000560,-0.00000063,0.00000035,0.00000213,-0.00000107
 ,0.00000048,-0.00000075,-0.00000395,-0.00000068,0.00000413,-0.00000124
 ,0.00000114,0.00000284,0.00000068,0.00000254,0.00000092,0.00020860,0.0
 0036701,-0.00066226,-0.00005901,-0.00045804,0.00037314,0.00043002,-0.0
 0006448,-0.00015398,-0.00005664,0.00025807,-0.00016085,-0.00001267,-0.
 00000698,-0.00000293,-0.00002738,-0.00000649,-0.00005849,0.00053339,0.
 00010950,-0.00039225,-0.00022254,0.00016064,-0.00001883,-0.00023562,-0
 .00015514,0.00033944,0.00024917,-0.00019374,-0.00074172,-0.00152280,-0
 .00021294,0.00040431,0.00289334,0.00343089,-0.00021932,0.00005859,0.00
 002196,0.00004885,0.00002027,0.00003261,0.00000047,-0.00053215,-0.0008
 4620,0.00085824,-0.00163125,0.00232392,-0.00306299,0.00427018,-0.00564
 401,0.00360594,0.00047206,0.00055502,-0.00022103,0.00009745,0.00014212
 ,0.00014794,0.00127514,0.00448078,0.00131411,-0.15256850,-0.01656011,0
 .06487616,-0.02302378,-0.00377665,0.02208177,-0.00019624,-0.00247025,-
 0.00103167,-0.00032368,-0.00037284,0.00028504,0.00000458,-0.00000404,-
 0.00005281,-0.00006874,0.00007310,0.00005698,-0.00006200,0.00004988,0.
 00001917,0.52423313,-0.00000051,0.00000175,-0.00000156,-0.00000421,0.0
 0000251,0.00000080,0.00000712,-0.00000449,0.00000234,-0.00000795,-0.00
 001408,0.00001068,-0.00000353,0.00000211,-0.00000222,0.00000193,-0.000
 00051,-0.00000390,0.00000004,0.00000052,-0.00000013,0.00000001,-0.0000
 0017,0.00000045,-0.00000331,-0.00000568,0.00000007,0.00000425,-0.00000
 114,0.00000508,-0.00000016,0.00000111,0.00000016,-0.00023260,-0.000135
 24,-0.00003694,-0.00009851,0.00012369,-0.00003203,0.00002010,-0.000082
 16,0.00013215,-0.00015307,0.00007706,0.00004491,0.00001136,-0.00002440
 ,0.00000552,-0.00003546,-0.00008060,-0.00000995,-0.00117678,0.00003575
 ,0.00079243,0.00036003,-0.00043450,0.00001691,0.00024698,0.00002244,-0
 .00009889,-0.00064717,-0.00008036,-0.00030211,0.00027851,-0.00047139,-
 0.00065926,0.00333464,-0.00253852,0.00413987,0.00000504,0.00006377,0.0
 0006516,-0.00000159,-0.00000447,0.00004476,-0.00087865,0.00024151,0.00
 028640,-0.00077775,-0.00249513,-0.00041583,-0.02055339,-0.00401601,0.0
 1885130,-0.00047749,-0.00137826,0.00183285,0.00015218,0.00012653,0.000
 15638,0.00415322,-0.00019873,0.00327701,-0.02258336,-0.09212367,0.0297
 0511,0.01394449,0.00820293,-0.01018748,0.00036319,-0.00087379,-0.00281
 201,0.00032272,0.00026356,-0.00061161,-0.00006558,-0.00003389,0.000009
 31,0.00011346,-0.00004768,-0.00000465,0.00014573,-0.00004744,-0.000009
 87,-0.02664777,0.57786524,0.00000143,-0.00000760,0.00000333,0.00000130
 ,0.00000215,0.00000280,-0.00000388,-0.00001395,0.00000029,-0.00000451,
 0.00002576,-0.00001574,0.00000293,0.00000030,-0.00000002,-0.00000337,-
 0.00000418,0.00000178,0.00000015,0.00000044,-0.00000018,0.00000086,-0.
 00000027,0.00000113,0.00000537,0.00000512,-0.00000051,-0.00000173,0.00
 000160,-0.00000522,0.00000053,0.00000044,0.00000209,-0.00024269,-0.000
 44243,0.00007471,0.00012435,0.00022725,-0.00021306,-0.00022308,0.00018
 662,0.00012459,0.00013632,-0.00025187,0.00005298,-0.00001208,0.0000092
 4,-0.00001975,-0.00003569,-0.00002061,-0.00007547,0.00052436,-0.000032
 97,-0.00024817,-0.00016107,0.00016011,-0.00008858,0.00005256,0.0001592
 3,-0.00003262,-0.00041496,-0.00059547,-0.00040731,0.00003775,-0.000334
 78,-0.00092440,-0.00011387,0.00406258,0.00350690,0.00006045,0.00005224
 ,0.00008246,0.00002475,0.00002298,0.00002518,0.00088755,0.00027507,-0.
 00093931,-0.00085972,-0.00243439,-0.00149862,0.01419891,0.00917221,-0.
 01217508,0.00053360,0.00114190,-0.00042262,0.00014206,0.00016418,0.000
 27486,0.00156138,0.00305991,0.00499663,0.06922494,0.02573135,-0.134662
 91,0.00945611,0.00139836,-0.00046327,-0.00306285,-0.00095574,-0.001805
 48,-0.00021091,-0.00015793,-0.00005017,-0.00000950,-0.00002939,-0.0000
 5346,-0.00003194,0.00003711,0.00004587,0.00001115,0.00003680,0.0000386
 3,0.03110931,-0.00737869,0.52807593,0.00000035,0.00000262,-0.00000180,
 -0.00000076,-0.00000172,-0.00000170,-0.00000136,0.00000657,-0.00000332
 ,0.00000947,-0.00000844,0.00000475,-0.00000196,0.00000213,-0.00000360,
 0.00000209,-0.00000115,0.00000106,-0.00000007,0.00000186,-0.00000061,0
 .00000153,0.00000186,-0.00000032,-0.00000191,-0.00000118,0.00000133,0.
 00000150,-0.00000014,0.00000301,-0.00000135,0.00000057,-0.00000045,-0.
 00005026,0.00013958,-0.00009343,0.00002408,-0.00008007,0.00002358,0.00
 007499,-0.00001651,-0.00003548,-0.00005228,0.00008070,-0.00001456,-0.0
 0000274,-0.00000795,0.00000655,0.00000076,-0.00001072,0.00000421,-0.00
 030917,0.00001545,0.00011438,0.00004115,-0.00015223,0.00006171,-0.0000
 4069,0.00004546,-0.00000823,-0.00002977,0.00002292,0.00001192,0.000040
 40,0.00011325,-0.00005533,0.00058699,-0.00094179,0.00054814,-0.0000000
 7,0.00000490,-0.00000446,-0.00001298,-0.00000635,0.00001498,0.00036475
 ,-0.00014672,-0.00001733,-0.00096302,0.00065504,0.00025545,-0.00357159
 ,0.00009462,0.00305993,0.00037033,-0.00002721,-0.00044134,0.00000065,-
 0.00002458,0.00002015,-0.00002762,-0.00019469,0.00004306,0.00449769,-0
 .02214038,0.01159194,0.00086957,-0.00175071,0.00062552,-0.00048284,0.0
 0059130,0.00012756,0.00000184,0.00001781,-0.00006741,-0.00003159,0.000
 03623,0.00001156,0.00001676,-0.00000003,-0.00000534,0.00002951,-0.0000
 0480,-0.00002043,-0.06076057,0.05568088,-0.03071733,0.06664471,0.00000
 030,-0.00000958,0.00000705,0.00000396,0.00000100,-0.00000025,0.0000034
 9,-0.00001575,0.00000829,-0.00000496,0.00003107,-0.00001722,0.00000086
 ,-0.00001174,0.00001237,-0.00000483,0.00000023,-0.00000250,0.00000018,
 -0.00000342,0.00000226,-0.00000279,-0.00000335,0.00000213,0.00000451,0
 .00000626,-0.00000071,-0.00000649,0.00000244,-0.00000556,0.00000253,-0
 .00000256,0.00000156,0.00002865,0.00001379,-0.00005924,-0.00005579,-0.
 00003759,0.00005323,0.00003410,0.00001387,-0.00002762,-0.00005622,0.00
 001268,0.00002527,0.00000514,-0.00000080,-0.00000488,-0.00000527,-0.00
 000336,0.00000650,-0.00017791,-0.00005808,0.00007581,0.00006033,-0.000
 08840,0.00000681,-0.00002824,0.00003203,-0.00000695,-0.00002465,0.0000
 3001,0.00000512,0.00000920,0.00024861,-0.00012731,0.00055080,-0.000225
 02,0.00008514,-0.00000669,0.00000102,0.00000228,-0.00001846,0.00000068
 ,0.00001379,-0.00007216,0.00004380,0.00014073,0.00008348,0.00022511,-0
 .00011628,-0.00087451,0.00064616,0.00098272,-0.00035718,0.00003698,-0.
 00002955,0.00000663,-0.00002072,0.00001415,-0.00031600,0.00011684,-0.0
 0000753,0.00156072,-0.00722262,0.00272865,0.00193237,0.00038300,-0.001
 59718,-0.00024739,0.00073929,-0.00010655,-0.00004316,-0.00004515,0.000
 00346,-0.00000758,0.00003038,0.00000167,-0.00002377,0.00001564,0.00001
 029,-0.00000967,0.00001012,-0.00000701,0.05227307,-0.24889284,0.110340
 46,-0.05860335,0.26761360,0.00000009,0.00000518,-0.00000409,-0.0000016
 2,0.00000148,0.00000023,-0.00000122,0.00000653,-0.00000423,0.00000100,
 -0.00001461,0.00001337,0.00000024,0.00000659,-0.00000610,0.00000176,0.
 00000031,-0.00000006,-0.00000008,0.00000104,-0.00000068,0.00000042,0.0
 0000077,-0.00000113,-0.00000236,-0.00000322,0.00000017,0.00000307,-0.0
 0000197,0.00000254,-0.00000072,0.00000162,-0.00000046,-0.00001375,-0.0
 0013164,0.00006287,0.00001028,0.00006431,-0.00007509,-0.00007330,0.000
 00340,0.00004606,0.00007938,-0.00005622,0.00000054,-0.00000248,0.00000
 454,-0.00000195,0.00000255,0.00000854,-0.00000969,0.00025172,-0.000049
 15,-0.00024488,-0.00008826,0.00014399,-0.00007193,0.00004565,-0.000056
 30,0.00000777,0.00004609,-0.00002615,0.00000275,0.00001926,-0.00019836
 ,0.00020413,-0.00051893,0.00105639,-0.00001828,0.00000397,-0.00000532,
 -0.00000148,0.00002321,0.00000635,-0.00001621,-0.00007300,0.00019076,0
 .00009050,0.00066447,-0.00049585,0.00005434,0.00375627,0.00035108,-0.0
 0147729,-0.00020839,-0.00024481,-0.00002193,-0.00000219,0.00003341,-0.
 00001923,0.00012495,-0.00008375,-0.00020598,-0.00535746,0.01816517,-0.
 01147900,-0.00200544,0.00081029,0.00065149,0.00073019,-0.00065458,0.00
 035462,-0.00002273,-0.00003654,-0.00003822,0.00004289,-0.00002718,0.00
 001712,-0.00001797,-0.00000956,0.00001110,0.00001157,-0.00000524,0.000
 00368,-0.02826933,0.10813790,-0.10565935,0.02793840,-0.12076902,0.1132
 8059,0.00000180,-0.00000997,0.00000838,0.00000575,0.00000059,-0.000000
 70,-0.00000265,-0.00001408,0.00000619,0.00000312,0.00003357,-0.0000254
 0,-0.00000138,-0.00001542,0.00000963,-0.00000323,0.00000137,0.00000187
 ,0.00000049,-0.00000314,0.00000148,-0.00000179,-0.00000177,0.00000171,
 0.00000769,0.00000722,-0.00000056,-0.00000595,0.00000276,-0.00000584,0
 .00000213,-0.00000407,0.00000170,0.00002361,-0.00011938,0.00010330,0.0
 0010083,0.00003286,-0.00008024,-0.00010631,0.00008609,-0.00000709,0.00
 006378,-0.00011675,0.00003916,0.00000332,0.00000098,-0.00000112,-0.000
 00483,0.00000111,-0.00000901,-0.00001809,0.00012328,-0.00008967,-0.000
 14365,0.00003348,0.00004522,-0.00006231,0.00003215,0.00003000,0.000050
 93,-0.00018468,-0.00003526,0.00003522,-0.00011654,-0.00011419,-0.00033
 822,0.00033543,0.00076033,0.00001333,-0.00000550,0.00001268,-0.0000121
 8,0.00000875,0.00000523,0.00048112,0.00006399,-0.00026934,-0.00015215,
 -0.00038911,0.00007218,0.00051448,0.00198337,-0.00042995,0.00043090,-0
 .00016965,-0.00024752,-0.00000563,-0.00000385,0.00000979,0.00000888,0.
 00074975,0.00094465,-0.02173973,-0.00193653,-0.00779775,-0.00113110,-0
 .00185293,0.00172124,-0.00026085,-0.00037818,-0.00036878,-0.00005521,-
 0.00007499,0.00009294,0.00001605,-0.00000812,-0.00002890,-0.00001927,0
 .00001020,0.00002242,-0.00004397,0.00001933,0.00002517,-0.24753142,-0.
 02730379,-0.11298500,-0.00542867,-0.00078906,-0.00273572,0.27171671,0.
 00000019,0.00000125,-0.00000228,0.00000083,-0.00000073,0.00000018,-0.0
 0000144,0.00000721,-0.00000620,0.00001445,-0.00000956,0.00000178,-0.00
 000374,-0.00000043,-0.00000117,0.00000261,-0.00000230,-0.00000133,-0.0
 0000032,0.00000208,0.00000001,0.00000111,0.00000168,-0.00000061,-0.000
 00189,-0.00000025,0.00000173,0.00000074,0.00000139,0.00000357,-0.00000
 079,0.00000064,0.00000097,-0.00005818,0.00010462,-0.00021352,0.0000475
 1,-0.00016163,0.00008428,0.00015723,-0.00001522,-0.00005242,-0.0000004
 5,0.00011212,-0.00008440,-0.00000906,-0.00001518,0.00000080,-0.0000045
 0,-0.00000243,-0.00001209,0.00004139,0.00004982,-0.00007213,-0.0000527
 7,-0.00002644,0.00004786,-0.00015496,0.00006976,0.00006477,0.00012332,
 -0.00006408,0.00001874,-0.00032569,0.00026384,-0.00009852,0.00063815,0
 .00025179,-0.00004848,0.00000939,-0.00000673,-0.00000993,-0.00000527,-
 0.00000031,0.00000639,0.00024210,-0.00028691,0.00007174,-0.00084773,0.
 00048940,0.00011804,-0.00032346,-0.00000076,0.00109501,0.00002496,-0.0
 0145750,-0.00002007,0.00001873,0.00000364,0.00004482,-0.00022092,-0.00
 021542,0.00011971,-0.00553826,-0.00126776,-0.00443292,0.00065427,-0.00
 064879,-0.00024854,0.00003365,0.00038103,0.00012636,0.00002053,0.00001
 672,0.00002923,-0.00000420,0.00001068,0.00000666,0.00001692,-0.0000131
 9,0.00000282,0.00000205,0.00000775,-0.00000932,-0.02764411,-0.04924438
 ,-0.01277974,0.02481889,0.00470753,0.01303955,0.02966637,0.05003192,0.
 00000056,0.00000203,-0.00000038,-0.00000134,-0.00000092,0.00000063,-0.
 00000057,0.00000232,0.00000038,-0.00000265,-0.00000417,0.00000265,0.00
 000109,0.00000317,-0.00000549,0.00000032,-0.00000014,0.00000231,0.0000
 0001,0.00000079,-0.00000121,0.00000100,0.00000107,-0.00000050,-0.00000
 046,-0.00000241,-0.00000138,0.00000204,-0.00000019,0.00000197,-0.00000
 131,0.00000060,-0.00000114,-0.00005774,0.00002849,0.00024150,0.0000203
 5,0.00014555,-0.00012626,-0.00015482,0.00000533,0.00004372,0.00003121,
 -0.00008967,0.00005288,0.00000596,0.00000882,0.00000973,0.00001048,0.0
 0000403,0.00001415,-0.00003087,-0.00006369,0.00008334,0.00006871,0.000
 02223,-0.00003588,0.00013163,-0.00004946,-0.00007340,-0.00003733,0.000
 12424,0.00008074,0.00034371,-0.00018645,0.00007849,-0.00058530,-0.0006
 5412,-0.00037319,-0.00001353,-0.00000270,-0.00000950,0.00001035,-0.000
 00562,-0.00001184,0.00019333,0.00024571,-0.00042079,-0.00024785,0.0000
 2421,0.00057430,-0.00002843,0.00032004,-0.00000594,0.00015369,0.000586
 68,-0.00016748,-0.00004637,-0.00003040,-0.00005219,0.00009210,-0.00064
 681,-0.00102722,0.02137164,0.00219016,0.01204152,0.00084143,0.00094849
 ,-0.00158033,0.00027801,-0.00000869,0.00024101,0.00008494,0.00007588,-
 0.00003347,-0.00000119,-0.00001095,0.00001710,0.00001929,-0.00001605,-
 0.00002118,0.00001800,-0.00001535,-0.00000416,-0.11109496,-0.01325672,
 -0.10518878,-0.01139707,-0.00274724,-0.00745153,0.11965296,0.01458448,
 0.11435129,0.00000050,-0.00000803,0.00000536,0.00000272,0.00000103,-0.
 00000054,0.00000121,-0.00001372,0.00000576,-0.00000247,0.00002769,-0.0
 0001731,0.00000149,-0.00000946,0.00000936,-0.00000350,0.00000024,-0.00
 000086,0.00000018,-0.00000253,0.00000174,-0.00000199,-0.00000250,0.000
 00202,0.00000421,0.00000661,0.00000042,-0.00000520,0.00000148,-0.00000
 554,0.00000212,-0.00000210,0.00000169,0.00011235,-0.00009850,0.0000438
 0,0.00001807,-0.00000390,0.00000059,-0.00003480,0.00004269,-0.00001882
 ,0.00001006,-0.00005966,0.00002203,0.00000339,0.00000353,-0.00000486,0
 .00000429,0.00001114,0.00000896,0.00000526,0.00009612,-0.00005447,-0.0
 0008126,0.00003626,0.00005700,-0.00006002,0.00000759,0.00001754,0.0001
 2653,-0.00001139,0.00012183,0.00005120,0.00004867,0.00008847,-0.000775
 39,-0.00021926,-0.00032995,-0.00000663,-0.00001810,-0.00000956,-0.0000
 1560,0.00000355,0.00000044,-0.00005977,-0.00008185,-0.00002405,0.00076
 677,-0.00016033,0.00001485,0.00036321,0.00077519,-0.00096146,-0.000010
 22,0.00005562,-0.00023141,-0.00000988,-0.00001531,-0.00002552,-0.00122
 255,-0.00042230,-0.00077506,-0.00555586,0.01824760,0.01793720,-0.00164
 220,-0.00150997,0.00196510,0.00028508,0.00029487,0.00053302,-0.0000475
 5,-0.00004572,0.00013894,0.00002869,0.00001572,-0.00000556,-0.00004430
 ,0.00001081,0.00001182,-0.00004612,0.00000734,0.00000395,-0.04591652,0
 .02250676,0.02099605,-0.00180785,0.00517581,0.00563752,0.00358844,-0.0
 2133762,-0.01963102,0.05197388,-0.00000060,0.00000421,-0.00000302,-0.0
 0000098,-0.00000359,-0.00000083,-0.00000087,0.00001194,-0.00000403,0.0
 0000708,-0.00001733,0.00000963,-0.00000153,0.00000384,-0.00000235,0.00
 000262,-0.00000109,0.00000056,-0.00000044,0.00000226,-0.00000068,0.000
 00142,0.00000168,-0.00000125,-0.00000368,-0.00000265,0.00000199,0.0000
 0187,-0.00000002,0.00000353,-0.00000134,0.00000069,-0.00000137,0.00018
 621,0.00027979,-0.00006061,-0.00004662,-0.00020307,0.00016465,0.000195
 55,-0.00009890,-0.00011716,-0.00004414,0.00018626,-0.00008711,0.000005
 16,0.00000204,0.00001639,0.00000367,0.00000774,0.00000668,0.00005900,0
 .00001506,-0.00004312,-0.00000038,-0.00004386,0.00003712,-0.00015221,0
 .00004700,0.00005255,0.00007148,-0.00002183,-0.00001367,-0.00035485,0.
 00038940,0.00005316,0.00035757,-0.00013284,-0.00092459,0.00000559,-0.0
 0000089,-0.00000706,-0.00000717,-0.00000549,0.00000250,-0.00029818,-0.
 00038226,0.00042474,-0.00000374,0.00054613,-0.00018489,-0.00011954,-0.
 00092265,0.00110858,0.00017065,-0.00053068,0.00099572,-0.00002521,-0.0
 0005173,-0.00005393,-0.00034926,-0.00017507,0.00009571,0.00105092,0.00
 853395,0.00650691,0.00003554,-0.00032756,-0.00007814,-0.00025354,0.000
 16213,-0.00023017,-0.00000553,0.00001189,0.00002648,-0.00001620,0.0000
 0909,-0.00000632,0.00001188,0.00000826,-0.00000998,-0.00000267,-0.0000
 0567,-0.00000255,0.02078362,-0.18380096,-0.13083339,0.00178808,-0.0183
 2116,-0.01916971,0.00030485,-0.00307486,-0.00153258,-0.02335407,0.1979
 0079,-0.00000095,0.00000616,-0.00000194,-0.00000332,-0.00000184,-0.000
 00111,0.00000142,0.00000656,0.00000105,-0.00001273,-0.00001779,0.00001
 652,0.00000090,0.00000857,-0.00000642,0.00000031,0.00000305,0.00000288
 ,0.00000015,0.00000017,-0.00000156,0.00000074,0.00000077,-0.00000096,-
 0.00000200,-0.00000569,-0.00000157,0.00000336,-0.00000259,0.00000075,-
 0.00000104,0.00000071,-0.00000323,-0.00003842,-0.00007521,-0.00002045,
 -0.00010637,0.00009042,-0.00000886,-0.00002685,-0.00002937,0.00006333,
 -0.00004037,-0.00000071,0.00003524,0.00000069,0.00000671,-0.00000724,-
 0.00000892,-0.00001385,-0.00000636,-0.00003061,-0.00012310,0.00009635,
 0.00012274,-0.00001975,-0.00008544,0.00016179,-0.00005756,-0.00004951,
 -0.00015586,0.00013360,-0.00003803,0.00006594,-0.00025418,-0.00006436,
 0.00037930,0.00025585,0.00045369,-0.00001217,0.00001257,0.00000411,0.0
 0001522,-0.00000280,-0.00000361,-0.00046015,0.00021363,0.00022331,0.00
 056875,-0.00029223,-0.00041586,0.00092416,-0.00022089,0.00110982,-0.00
 087500,0.00058121,-0.00066911,0.00002090,0.00003272,0.00000649,0.00070
 372,0.00027311,0.00016569,0.00360573,-0.01364507,-0.01403444,-0.000044
 17,0.00136744,-0.00140069,-0.00000861,-0.00018671,-0.00008000,0.000048
 85,0.00006896,-0.00003704,-0.00001297,-0.00000760,0.00000653,0.0000309
 8,-0.00001444,-0.00000481,0.00000974,0.00001421,-0.00000188,0.02062044
 ,-0.13169370,-0.17236010,-0.00157966,0.01110284,0.01200492,0.00166384,
 -0.01137583,-0.01124448,-0.02552950,0.14386164,0.18635838\\-0.00000049
 ,0.00000814,-0.00000550,-0.00000844,-0.00000511,-0.00000075,-0.0000148
 9,-0.00000239,-0.00000728,0.00000056,-0.00001087,0.00000733,0.00001468
 ,0.00000697,0.00000419,0.00000876,-0.00000047,0.00000452,0.00000006,-0
 .00000093,0.00000063,0.00000545,-0.00000448,0.00000016,0.00000675,0.00
 000276,-0.00000306,-0.00000709,0.00000333,-0.00000104,-0.00000503,-0.0
 0000227,0.00000440,-0.00001617,0.00001450,0.00000314,0.00001797,-0.000
 01063,-0.00000329,-0.00000024,0.00000356,-0.00000239,-0.00001719,-0.00
 000240,0.00001207,-0.00000548,0.00000082,0.00000846,0.00000588,-0.0000
 0708,-0.00000425,0.00000130,-0.00002214,0.00001493,0.00001503,0.000003
 87,-0.00001550,-0.00001937,0.00000285,0.00000380,-0.00002296,0.0000013
 5,0.00000728,0.00001990,-0.00000378,-0.00001250,-0.00000059,0.00000936
 ,-0.00000630,0.00000498,-0.00000947,-0.00000421,0.00000377,-0.00000131
 ,-0.00000774,0.00001935,-0.00000089,-0.00000519,0.00002314,-0.00000439
 ,-0.00000523,-0.00002016,0.00000863,0.00000922,-0.00000406,0.00000637,
 0.00000434,-0.00000446,0.00000002,0.00001061,-0.00000714,-0.00000252,0
 .00000430,0.00000759,-0.00000444,0.00000035,-0.00000087,0.00001418,-0.
 00000953,0.00000021,-0.00000343,0.00000230,0.00000403,-0.00000052,-0.0
 0000918,-0.00000581,-0.00000049,-0.00000108,-0.00000393,-0.00000142,-0
 .00000433,-0.00000530,-0.00000038,-0.00000191,-0.00000455,0.00000803,0
 .00000416,0.00000578,0.00000125,0.00000055,0.00000383,0.00000380,0.000
 00276,0.00000520,0.00000202,0.00000075\\\@
 The archive entry for this job was punched.


 ALL THINGS ARE POSSIBLE EXCEPT SKIING THROUGH A REVOLVING DOOR.
 Job cpu time:       5 days 14 hours 59 minutes 37.7 seconds.
 Elapsed time:       0 days  4 hours 16 minutes 16.4 seconds.
 File lengths (MBytes):  RWF=   3871 Int=      0 D2E=      0 Chk=     58 Scr=      1
 Normal termination of Gaussian 16 at Tue Nov 14 22:19:26 2023.
