 Entering Gaussian System, Link 0=g16
 Input=phenyl_idp_1_1_m062x.com
 Output=phenyl_idp_1_1_m062x.log
 Initial command:
 /arc/software/Gaussian/g16.c01/l1.exe "/tmp/Gau-107205.inp" -scrdir="/tmp/"
 Entering Link 1 = /arc/software/Gaussian/g16.c01/l1.exe PID=    107206.
  
 Copyright (c) 1988-2019, Gaussian, Inc.  All Rights Reserved.
  
 This is part of the Gaussian(R) 16 program.  It is based on
 the Gaussian(R) 09 system (copyright 2009, Gaussian, Inc.),
 the Gaussian(R) 03 system (copyright 2003, Gaussian, Inc.),
 the Gaussian(R) 98 system (copyright 1998, Gaussian, Inc.),
 the Gaussian(R) 94 system (copyright 1995, Gaussian, Inc.),
 the Gaussian 92(TM) system (copyright 1992, Gaussian, Inc.),
 the Gaussian 90(TM) system (copyright 1990, Gaussian, Inc.),
 the Gaussian 88(TM) system (copyright 1988, Gaussian, Inc.),
 the Gaussian 86(TM) system (copyright 1986, Carnegie Mellon
 University), and the Gaussian 82(TM) system (copyright 1983,
 Carnegie Mellon University). Gaussian is a federally registered
 trademark of Gaussian, Inc.
  
 This software contains proprietary and confidential information,
 including trade secrets, belonging to Gaussian, Inc.
  
 This software is provided under written license and may be
 used, copied, transmitted, or stored only in accord with that
 written license.
  
 The following legend is applicable only to US Government
 contracts under FAR:
  
                    RESTRICTED RIGHTS LEGEND
  
 Use, reproduction and disclosure by the US Government is
 subject to restrictions as set forth in subparagraphs (a)
 and (c) of the Commercial Computer Software - Restricted
 Rights clause in FAR 52.227-19.
  
 Gaussian, Inc.
 340 Quinnipiac St., Bldg. 40, Wallingford CT 06492
  
  
 ---------------------------------------------------------------
 Warning -- This program may not be used in any manner that
 competes with the business of Gaussian, Inc. or will provide
 assistance to any competitor of Gaussian, Inc.  The licensee
 of this program is prohibited from giving any competitor of
 Gaussian, Inc. access to this program.  By using this program,
 the user acknowledges that Gaussian, Inc. is engaged in the
 business of creating and licensing software in the field of
 computational chemistry and represents and warrants to the
 licensee that it is not a competitor of Gaussian, Inc. and that
 it will not use this program in any manner prohibited above.
 ---------------------------------------------------------------
  

 Cite this work as:
 Gaussian 16, Revision C.01,
 M. J. Frisch, G. W. Trucks, H. B. Schlegel, G. E. Scuseria, 
 M. A. Robb, J. R. Cheeseman, G. Scalmani, V. Barone, 
 G. A. Petersson, H. Nakatsuji, X. Li, M. Caricato, A. V. Marenich, 
 J. Bloino, B. G. Janesko, R. Gomperts, B. Mennucci, H. P. Hratchian, 
 J. V. Ortiz, A. F. Izmaylov, J. L. Sonnenberg, D. Williams-Young, 
 F. Ding, F. Lipparini, F. Egidi, J. Goings, B. Peng, A. Petrone, 
 T. Henderson, D. Ranasinghe, V. G. Zakrzewski, J. Gao, N. Rega, 
 G. Zheng, W. Liang, M. Hada, M. Ehara, K. Toyota, R. Fukuda, 
 J. Hasegawa, M. Ishida, T. Nakajima, Y. Honda, O. Kitao, H. Nakai, 
 T. Vreven, K. Throssell, J. A. Montgomery, Jr., J. E. Peralta, 
 F. Ogliaro, M. J. Bearpark, J. J. Heyd, E. N. Brothers, K. N. Kudin, 
 V. N. Staroverov, T. A. Keith, R. Kobayashi, J. Normand, 
 K. Raghavachari, A. P. Rendell, J. C. Burant, S. S. Iyengar, 
 J. Tomasi, M. Cossi, J. M. Millam, M. Klene, C. Adamo, R. Cammi, 
 J. W. Ochterski, R. L. Martin, K. Morokuma, O. Farkas, 
 J. B. Foresman, and D. J. Fox, Gaussian, Inc., Wallingford CT, 2019.
 
 ******************************************
 Gaussian 16:  ES64L-G16RevC.01  3-Jul-2019
                 1-Nov-2023 
 ******************************************
 %nprocshared=32
 Will use up to   32 processors via shared memory.
 %mem=8000MB
 %chk=phenyl_idp_1_1_m062x.chk
 -----------------------------------------
 # opt freq=noraman m062x def2tzvp pop=nbo
 -----------------------------------------
 1/18=20,19=15,26=3,38=1/1,3;
 2/9=110,12=2,17=6,18=5,40=1/2;
 3/5=44,7=101,11=2,25=1,30=1,71=1,74=-55/1,2,3;
 4//1;
 5/5=2,38=5/2;
 6/7=2,8=2,9=2,10=2,28=1,40=1/1,7;
 7//1,2,3,16;
 1/18=20,19=15,26=3/3(2);
 2/9=110/2;
 99//99;
 2/9=110/2;
 3/5=44,7=101,11=2,25=1,30=1,71=1,74=-55/1,2,3;
 4/5=5,16=3,69=1/1;
 5/5=2,38=5/2;
 7//1,2,3,16;
 1/18=20,19=15,26=3/3(-5);
 2/9=110/2;
 6/7=2,8=2,9=2,10=2,19=2,28=1,40=1/1,7;
 99/9=1/99;
 ------------
 Structure697
 ------------
 Symbolic Z-matrix:
 Charge =  0 Multiplicity = 1
 C                     0.0034    0.        0. 
 C                    -0.7115   -1.2023    0.0879 
 C                    -2.1043   -1.205     0.0889 
 C                    -2.7956    0.        0. 
 C                    -2.1043    1.205    -0.0889 
 C                    -0.7115    1.2023   -0.0879 
 C                     1.4966    0.        0. 
 C                     2.2115    0.9972    0.6773 
 C                     3.6043    0.9992    0.6795 
 C                     4.2956    0.        0. 
 C                     3.6043   -0.9992   -0.6795 
 C                     2.2115   -0.9972   -0.6773 
 H                    -0.1856   -2.142     0.1709 
 H                    -2.6447   -2.1378    0.1614 
 H                    -3.8762    0.        0. 
 H                    -2.6447    2.1378   -0.1613 
 H                    -0.1856    2.142    -0.1709 
 H                     1.6856    1.7696    1.219 
 H                     4.1447    1.7707    1.2086 
 H                     5.3762    0.        0. 
 H                     4.1447   -1.7707   -1.2086 
 H                     1.6856   -1.7696   -1.219 
 

 GradGradGradGradGradGradGradGradGradGradGradGradGradGradGradGradGradGrad
 Berny optimization.
 Initialization pass.
                           ----------------------------
                           !    Initial Parameters    !
                           ! (Angstroms and Degrees)  !
 --------------------------                            --------------------------
 ! Name  Definition              Value          Derivative Info.                !
 --------------------------------------------------------------------------------
 ! R1    R(1,2)                  1.4015         estimate D2E/DX2                !
 ! R2    R(1,6)                  1.4015         estimate D2E/DX2                !
 ! R3    R(1,7)                  1.4932         estimate D2E/DX2                !
 ! R4    R(2,3)                  1.3928         estimate D2E/DX2                !
 ! R5    R(2,13)                 1.08           estimate D2E/DX2                !
 ! R6    R(3,4)                  1.3921         estimate D2E/DX2                !
 ! R7    R(3,14)                 1.0805         estimate D2E/DX2                !
 ! R8    R(4,5)                  1.3921         estimate D2E/DX2                !
 ! R9    R(4,15)                 1.0806         estimate D2E/DX2                !
 ! R10   R(5,6)                  1.3928         estimate D2E/DX2                !
 ! R11   R(5,16)                 1.0805         estimate D2E/DX2                !
 ! R12   R(6,17)                 1.08           estimate D2E/DX2                !
 ! R13   R(7,8)                  1.4015         estimate D2E/DX2                !
 ! R14   R(7,12)                 1.4015         estimate D2E/DX2                !
 ! R15   R(8,9)                  1.3928         estimate D2E/DX2                !
 ! R16   R(8,18)                 1.0801         estimate D2E/DX2                !
 ! R17   R(9,10)                 1.3921         estimate D2E/DX2                !
 ! R18   R(9,19)                 1.0804         estimate D2E/DX2                !
 ! R19   R(10,11)                1.3921         estimate D2E/DX2                !
 ! R20   R(10,20)                1.0806         estimate D2E/DX2                !
 ! R21   R(11,12)                1.3928         estimate D2E/DX2                !
 ! R22   R(11,21)                1.0804         estimate D2E/DX2                !
 ! R23   R(12,22)                1.0801         estimate D2E/DX2                !
 ! A1    A(2,1,6)              118.6618         estimate D2E/DX2                !
 ! A2    A(2,1,7)              120.6691         estimate D2E/DX2                !
 ! A3    A(6,1,7)              120.6691         estimate D2E/DX2                !
 ! A4    A(1,2,3)              120.7829         estimate D2E/DX2                !
 ! A5    A(1,2,13)             120.1866         estimate D2E/DX2                !
 ! A6    A(3,2,13)             119.0244         estimate D2E/DX2                !
 ! A7    A(2,3,4)              119.6617         estimate D2E/DX2                !
 ! A8    A(2,3,14)             120.1242         estimate D2E/DX2                !
 ! A9    A(4,3,14)             120.2138         estimate D2E/DX2                !
 ! A10   A(3,4,5)              120.449          estimate D2E/DX2                !
 ! A11   A(3,4,15)             119.7755         estimate D2E/DX2                !
 ! A12   A(5,4,15)             119.7755         estimate D2E/DX2                !
 ! A13   A(4,5,6)              119.6617         estimate D2E/DX2                !
 ! A14   A(4,5,16)             120.2137         estimate D2E/DX2                !
 ! A15   A(6,5,16)             120.1244         estimate D2E/DX2                !
 ! A16   A(1,6,5)              120.7829         estimate D2E/DX2                !
 ! A17   A(1,6,17)             120.1866         estimate D2E/DX2                !
 ! A18   A(5,6,17)             119.0244         estimate D2E/DX2                !
 ! A19   A(1,7,8)              120.67           estimate D2E/DX2                !
 ! A20   A(1,7,12)             120.67           estimate D2E/DX2                !
 ! A21   A(8,7,12)             118.6599         estimate D2E/DX2                !
 ! A22   A(7,8,9)              120.789          estimate D2E/DX2                !
 ! A23   A(7,8,18)             120.1873         estimate D2E/DX2                !
 ! A24   A(9,8,18)             119.0177         estimate D2E/DX2                !
 ! A25   A(8,9,10)             119.655          estimate D2E/DX2                !
 ! A26   A(8,9,19)             120.1323         estimate D2E/DX2                !
 ! A27   A(10,9,19)            120.2124         estimate D2E/DX2                !
 ! A28   A(9,10,11)            120.4522         estimate D2E/DX2                !
 ! A29   A(9,10,20)            119.7739         estimate D2E/DX2                !
 ! A30   A(11,10,20)           119.7739         estimate D2E/DX2                !
 ! A31   A(10,11,12)           119.655          estimate D2E/DX2                !
 ! A32   A(10,11,21)           120.2124         estimate D2E/DX2                !
 ! A33   A(12,11,21)           120.1323         estimate D2E/DX2                !
 ! A34   A(7,12,11)            120.789          estimate D2E/DX2                !
 ! A35   A(7,12,22)            120.1873         estimate D2E/DX2                !
 ! A36   A(11,12,22)           119.0177         estimate D2E/DX2                !
 ! D1    D(6,1,2,3)             -0.0383         estimate D2E/DX2                !
 ! D2    D(6,1,2,13)          -179.1248         estimate D2E/DX2                !
 ! D3    D(7,1,2,3)            179.9617         estimate D2E/DX2                !
 ! D4    D(7,1,2,13)             0.8752         estimate D2E/DX2                !
 ! D5    D(2,1,6,5)             -0.0383         estimate D2E/DX2                !
 ! D6    D(2,1,6,17)          -179.1248         estimate D2E/DX2                !
 ! D7    D(7,1,6,5)            179.9617         estimate D2E/DX2                !
 ! D8    D(7,1,6,17)             0.8752         estimate D2E/DX2                !
 ! D9    D(2,1,7,8)           -141.6341         estimate D2E/DX2                !
 ! D10   D(2,1,7,12)            38.3659         estimate D2E/DX2                !
 ! D11   D(6,1,7,8)             38.3659         estimate D2E/DX2                !
 ! D12   D(6,1,7,12)          -141.6341         estimate D2E/DX2                !
 ! D13   D(1,2,3,4)              0.0763         estimate D2E/DX2                !
 ! D14   D(1,2,3,14)          -179.7364         estimate D2E/DX2                !
 ! D15   D(13,2,3,4)           179.1732         estimate D2E/DX2                !
 ! D16   D(13,2,3,14)           -0.6395         estimate D2E/DX2                !
 ! D17   D(2,3,4,5)             -0.0378         estimate D2E/DX2                !
 ! D18   D(2,3,4,15)           179.9622         estimate D2E/DX2                !
 ! D19   D(14,3,4,5)           179.7747         estimate D2E/DX2                !
 ! D20   D(14,3,4,15)           -0.2253         estimate D2E/DX2                !
 ! D21   D(3,4,5,6)             -0.0378         estimate D2E/DX2                !
 ! D22   D(3,4,5,16)           179.7808         estimate D2E/DX2                !
 ! D23   D(15,4,5,6)           179.9622         estimate D2E/DX2                !
 ! D24   D(15,4,5,16)           -0.2192         estimate D2E/DX2                !
 ! D25   D(4,5,6,1)              0.0763         estimate D2E/DX2                !
 ! D26   D(4,5,6,17)           179.1732         estimate D2E/DX2                !
 ! D27   D(16,5,6,1)          -179.7425         estimate D2E/DX2                !
 ! D28   D(16,5,6,17)           -0.6456         estimate D2E/DX2                !
 ! D29   D(1,7,8,9)            179.9667         estimate D2E/DX2                !
 ! D30   D(1,7,8,18)             0.8674         estimate D2E/DX2                !
 ! D31   D(12,7,8,9)            -0.0333         estimate D2E/DX2                !
 ! D32   D(12,7,8,18)         -179.1326         estimate D2E/DX2                !
 ! D33   D(1,7,12,11)          179.9667         estimate D2E/DX2                !
 ! D34   D(1,7,12,22)            0.8674         estimate D2E/DX2                !
 ! D35   D(8,7,12,11)           -0.0333         estimate D2E/DX2                !
 ! D36   D(8,7,12,22)         -179.1326         estimate D2E/DX2                !
 ! D37   D(7,8,9,10)             0.0663         estimate D2E/DX2                !
 ! D38   D(7,8,9,19)          -179.7411         estimate D2E/DX2                !
 ! D39   D(18,8,9,10)          179.176          estimate D2E/DX2                !
 ! D40   D(18,8,9,19)           -0.6314         estimate D2E/DX2                !
 ! D41   D(8,9,10,11)           -0.0329         estimate D2E/DX2                !
 ! D42   D(8,9,10,20)          179.9671         estimate D2E/DX2                !
 ! D43   D(19,9,10,11)         179.7744         estimate D2E/DX2                !
 ! D44   D(19,9,10,20)          -0.2256         estimate D2E/DX2                !
 ! D45   D(9,10,11,12)          -0.0329         estimate D2E/DX2                !
 ! D46   D(9,10,11,21)         179.7744         estimate D2E/DX2                !
 ! D47   D(20,10,11,12)        179.9671         estimate D2E/DX2                !
 ! D48   D(20,10,11,21)         -0.2256         estimate D2E/DX2                !
 ! D49   D(10,11,12,7)           0.0663         estimate D2E/DX2                !
 ! D50   D(10,11,12,22)        179.176          estimate D2E/DX2                !
 ! D51   D(21,11,12,7)        -179.7411         estimate D2E/DX2                !
 ! D52   D(21,11,12,22)         -0.6314         estimate D2E/DX2                !
 --------------------------------------------------------------------------------
 Trust Radius=3.00D-01 FncErr=1.00D-07 GrdErr=1.00D-06 EigMax=2.50D+02 EigMin=1.00D-04
 Number of steps in this run=    121 maximum allowed number of steps=    132.
 GradGradGradGradGradGradGradGradGradGradGradGradGradGradGradGradGradGrad

                          Input orientation:                          
 ---------------------------------------------------------------------
 Center     Atomic      Atomic             Coordinates (Angstroms)
 Number     Number       Type             X           Y           Z
 ---------------------------------------------------------------------
      1          6           0        0.003400    0.000000    0.000000
      2          6           0       -0.711500   -1.202300    0.087900
      3          6           0       -2.104300   -1.205000    0.088900
      4          6           0       -2.795600    0.000000    0.000000
      5          6           0       -2.104300    1.205000   -0.088900
      6          6           0       -0.711500    1.202300   -0.087900
      7          6           0        1.496600    0.000000    0.000000
      8          6           0        2.211500    0.997200    0.677300
      9          6           0        3.604300    0.999200    0.679500
     10          6           0        4.295600    0.000000    0.000000
     11          6           0        3.604300   -0.999200   -0.679500
     12          6           0        2.211500   -0.997200   -0.677300
     13          1           0       -0.185600   -2.142000    0.170900
     14          1           0       -2.644700   -2.137800    0.161400
     15          1           0       -3.876200    0.000000    0.000000
     16          1           0       -2.644700    2.137800   -0.161300
     17          1           0       -0.185600    2.142000   -0.170900
     18          1           0        1.685600    1.769600    1.219000
     19          1           0        4.144700    1.770700    1.208600
     20          1           0        5.376200    0.000000    0.000000
     21          1           0        4.144700   -1.770700   -1.208600
     22          1           0        1.685600   -1.769600   -1.219000
 ---------------------------------------------------------------------
                    Distance matrix (angstroms):
                    1          2          3          4          5
     1  C    0.000000
     2  C    1.401547   0.000000
     3  C    2.429471   1.392803   0.000000
     4  C    2.799000   2.407639   1.392057   0.000000
     5  C    2.429471   2.786798   2.416550   1.392057   0.000000
     6  C    1.401547   2.411018   2.786798   2.407639   1.392803
     7  C    1.493200   2.515742   3.798211   4.292200   3.798211
     8  C    2.515720   3.705283   4.880782   5.150164   4.388208
     9  C    3.798237   4.880853   6.147798   6.512975   5.763758
    10  C    4.292200   5.150175   6.512960   7.091200   6.512960
    11  C    3.798237   4.388198   5.763758   6.512975   6.147798
    12  C    2.515720   3.028453   4.388208   5.150164   4.880782
    13  H    2.157103   1.080044   2.136844   3.380750   3.866693
    14  H    3.407150   2.148912   1.080465   2.149188   3.395437
    15  H    3.879600   3.386529   2.144658   1.080600   2.144658
    16  H    3.407145   3.867251   3.395430   2.149181   1.080458
    17  H    2.157103   3.395275   3.866693   3.380750   2.136844
    18  H    2.728964   3.982168   4.948607   4.969768   4.048792
    19  H    4.663310   5.803221   7.011314   7.263873   6.407302
    20  H    5.372800   6.205912   7.577454   8.171800   7.577454
    21  H    4.663310   5.058327   6.407302   7.263873   7.011314
    22  H    2.728964   2.788531   4.048792   4.969768   4.948607
                    6          7          8          9         10
     6  C    0.000000
     7  C    2.515742   0.000000
     8  C    3.028453   1.401508   0.000000
     9  C    4.388198   2.429510   1.392803   0.000000
    10  C    5.150175   2.799000   2.407616   1.392127   0.000000
    11  C    4.880853   2.429510   2.786828   2.416709   1.392127
    12  C    3.705283   1.401508   2.410928   2.786828   2.407616
    13  H    3.395275   2.728950   3.982098   4.948652   4.969761
    14  H    3.867258   4.663325   5.803194   7.011362   7.263883
    15  H    3.386529   5.372800   6.205903   7.577467   8.171800
    16  H    2.148909   4.663322   5.058349   6.407289   7.263881
    17  H    1.080044   2.728950   2.788566   4.048767   4.969761
    18  H    2.788531   2.157120   1.080098   2.136817   3.380761
    19  H    5.058327   3.407129   2.148917   1.080366   2.149154
    20  H    6.205912   3.879600   3.386513   2.144703   1.080600
    21  H    5.803221   3.407129   3.867189   3.395482   2.149154
    22  H    3.982168   2.157120   3.395248   3.866777   3.380761
                   11         12         13         14         15
    11  C    0.000000
    12  C    1.392803   0.000000
    13  H    4.048767   2.788566   0.000000
    14  H    6.407302   5.058366   2.459122   0.000000
    15  H    7.577467   6.205903   4.270585   2.472414   0.000000
    16  H    7.011369   5.803203   4.947142   4.287761   2.472407
    17  H    4.948652   3.982098   4.297614   4.947149   4.270585
    18  H    3.866777   3.395248   4.461000   5.927714   5.962471
    19  H    3.395482   3.867189   5.927693   7.903730   8.302465
    20  H    2.144703   3.386513   5.962465   8.302474   9.252400
    21  H    1.080366   2.148917   4.559866   6.935965   8.302465
    22  H    2.136817   1.080098   2.360486   4.559887   5.962471
                   16         17         18         19         20
    16  H    0.000000
    17  H    2.459122   0.000000
    18  H    4.559857   2.360486   0.000000
    19  H    6.935946   4.559866   2.459122   0.000000
    20  H    8.302472   5.962465   4.270594   2.472384   0.000000
    21  H    7.903744   5.927693   4.947134   4.287700   2.472384
    22  H    5.927732   4.461000   4.297648   4.947134   4.270594
                   21         22
    21  H    0.000000
    22  H    2.459122   0.000000
 Stoichiometry    C12H10
 Framework group  C1[X(C12H10)]
 Deg. of freedom    60
 Full point group                 C1      NOp   1
 Largest Abelian subgroup         C1      NOp   1
 Largest concise Abelian subgroup C1      NOp   1
                         Standard orientation:                         
 ---------------------------------------------------------------------
 Center     Atomic      Atomic             Coordinates (Angstroms)
 Number     Number       Type             X           Y           Z
 ---------------------------------------------------------------------
      1          6           0       -0.746600   -0.000000   -0.000002
      2          6           0       -1.461500   -1.138581    0.396086
      3          6           0       -2.854300   -1.140931    0.397750
      4          6           0       -3.545600   -0.000001   -0.000004
      5          6           0       -2.854300    1.140929   -0.397756
      6          6           0       -1.461500    1.138580   -0.396091
      7          6           0        0.746600   -0.000000   -0.000001
      8          6           0        1.461499    1.138521    0.396122
      9          6           0        2.854299    1.141023    0.397730
     10          6           0        3.545600    0.000000    0.000001
     11          6           0        2.854301   -1.141022   -0.397728
     12          6           0        1.461501   -1.138521   -0.396122
     13          1           0       -0.935600   -2.024778    0.719475
     14          1           0       -3.394700   -2.023181    0.709210
     15          1           0       -4.626200   -0.000001   -0.000004
     16          1           0       -3.394700    2.023204   -0.709120
     17          1           0       -0.935600    2.024777   -0.719478
     18          1           0        0.935599    2.024806    0.719447
     19          1           0        3.394699    2.023177    0.709119
     20          1           0        4.626200    0.000001    0.000002
     21          1           0        3.394701   -2.023176   -0.709116
     22          1           0        0.935601   -2.024806   -0.719448
 ---------------------------------------------------------------------
 Rotational constants (GHZ):           2.8556148           0.5487074           0.4769816
 Standard basis: def2TZVP (5D, 7F)
 There are   492 symmetry adapted cartesian basis functions of A   symmetry.
 There are   432 symmetry adapted basis functions of A   symmetry.
   432 basis functions,   692 primitive gaussians,   492 cartesian basis functions
    41 alpha electrons       41 beta electrons
       nuclear repulsion energy       599.9589566085 Hartrees.
 NAtoms=   22 NActive=   22 NUniq=   22 SFac= 1.00D+00 NAtFMM=   60 NAOKFM=F Big=F
 Integral buffers will be    131072 words long.
 Raffenetti 2 integral format.
 Two-electron integral symmetry is turned on.
 One-electron integrals computed using PRISM.
   1 Symmetry operations used in ECPInt.
 ECPInt:  NShTT=   14878 NPrTT=   45444 LenC2=   13985 LenP2D=   32663.
 LDataN:  DoStor=T MaxTD1= 6 Len=  172
 NBasis=   432 RedAO= T EigKep=  7.92D-06  NBF=   432
 NBsUse=   432 1.00D-06 EigRej= -1.00D+00 NBFU=   432
 ExpMin= 9.52D-02 ExpMax= 1.36D+04 ExpMxC= 4.63D+02 IAcc=3 IRadAn=         5 AccDes= 0.00D+00
 Harris functional with IExCor= 1009 and IRadAn=       5 diagonalized for initial guess.
 HarFok:  IExCor= 1009 AccDes= 0.00D+00 IRadAn=         5 IDoV= 1 UseB2=F ITyADJ=14
 ICtDFT=  3500011 ScaDFX=  1.000000  1.000000  1.000000  1.000000
 FoFCou: FMM=F IPFlag=           0 FMFlag=      100000 FMFlg1=           0
         NFxFlg=           0 DoJE=T BraDBF=F KetDBF=T FulRan=T
         wScrn=  0.000000 ICntrl=       500 IOpCl=  0 I1Cent=   200000004 NGrid=           0
         NMat0=    1 NMatS0=      1 NMatT0=    0 NMatD0=    1 NMtDS0=    0 NMtDT0=    0
 Petite list used in FoFCou.
 Requested convergence on RMS density matrix=1.00D-08 within 128 cycles.
 Requested convergence on MAX density matrix=1.00D-06.
 Requested convergence on             energy=1.00D-06.
 No special actions if energy rises.
 Integral accuracy reduced to 1.0D-05 until final iterations.
 Initial convergence to 1.0D-05 achieved.  Increase integral accuracy.
 SCF Done:  E(RM062X) =  -463.267200141     A.U. after   16 cycles
            NFock= 16  Conv=0.84D-08     -V/T= 2.0053

 **********************************************************************

            Population analysis using the SCF Density.

 **********************************************************************

 Orbital symmetries:
       Occupied  (A) (A) (A) (A) (A) (A) (A) (A) (A) (A) (A) (A)
                 (A) (A) (A) (A) (A) (A) (A) (A) (A) (A) (A) (A)
                 (A) (A) (A) (A) (A) (A) (A) (A) (A) (A) (A) (A)
                 (A) (A) (A) (A) (A)
       Virtual   (A) (A) (A) (A) (A) (A) (A) (A) (A) (A) (A) (A)
                 (A) (A) (A) (A) (A) (A) (A) (A) (A) (A) (A) (A)
                 (A) (A) (A) (A) (A) (A) (A) (A) (A) (A) (A) (A)
                 (A) (A) (A) (A) (A) (A) (A) (A) (A) (A) (A) (A)
                 (A) (A) (A) (A) (A) (A) (A) (A) (A) (A) (A) (A)
                 (A) (A) (A) (A) (A) (A) (A) (A) (A) (A) (A) (A)
                 (A) (A) (A) (A) (A) (A) (A) (A) (A) (A) (A) (A)
                 (A) (A) (A) (A) (A) (A) (A) (A) (A) (A) (A) (A)
                 (A) (A) (A) (A) (A) (A) (A) (A) (A) (A) (A) (A)
                 (A) (A) (A) (A) (A) (A) (A) (A) (A) (A) (A) (A)
                 (A) (A) (A) (A) (A) (A) (A) (A) (A) (A) (A) (A)
                 (A) (A) (A) (A) (A) (A) (A) (A) (A) (A) (A) (A)
                 (A) (A) (A) (A) (A) (A) (A) (A) (A) (A) (A) (A)
                 (A) (A) (A) (A) (A) (A) (A) (A) (A) (A) (A) (A)
                 (A) (A) (A) (A) (A) (A) (A) (A) (A) (A) (A) (A)
                 (A) (A) (A) (A) (A) (A) (A) (A) (A) (A) (A) (A)
                 (A) (A) (A) (A) (A) (A) (A) (A) (A) (A) (A) (A)
                 (A) (A) (A) (A) (A) (A) (A) (A) (A) (A) (A) (A)
                 (A) (A) (A) (A) (A) (A) (A) (A) (A) (A) (A) (A)
                 (A) (A) (A) (A) (A) (A) (A) (A) (A) (A) (A) (A)
                 (A) (A) (A) (A) (A) (A) (A) (A) (A) (A) (A) (A)
                 (A) (A) (A) (A) (A) (A) (A) (A) (A) (A) (A) (A)
                 (A) (A) (A) (A) (A) (A) (A) (A) (A) (A) (A) (A)
                 (A) (A) (A) (A) (A) (A) (A) (A) (A) (A) (A) (A)
                 (A) (A) (A) (A) (A) (A) (A) (A) (A) (A) (A) (A)
                 (A) (A) (A) (A) (A) (A) (A) (A) (A) (A) (A) (A)
                 (A) (A) (A) (A) (A) (A) (A) (A) (A) (A) (A) (A)
                 (A) (A) (A) (A) (A) (A) (A) (A) (A) (A) (A) (A)
                 (A) (A) (A) (A) (A) (A) (A) (A) (A) (A) (A) (A)
                 (A) (A) (A) (A) (A) (A) (A) (A) (A) (A) (A) (A)
                 (A) (A) (A) (A) (A) (A) (A) (A) (A) (A) (A) (A)
                 (A) (A) (A) (A) (A) (A) (A) (A) (A) (A) (A) (A)
                 (A) (A) (A) (A) (A) (A) (A)
 The electronic state is 1-A.
 Alpha  occ. eigenvalues --  -10.55573 -10.55529 -10.54396 -10.54394 -10.54392
 Alpha  occ. eigenvalues --  -10.54392 -10.54321 -10.54321 -10.54311 -10.54311
 Alpha  occ. eigenvalues --  -10.54167 -10.54166  -0.97577  -0.95240  -0.87624
 Alpha  occ. eigenvalues --   -0.84916  -0.84117  -0.81548  -0.70931  -0.70448
 Alpha  occ. eigenvalues --   -0.67551  -0.65974  -0.61092  -0.57428  -0.54508
 Alpha  occ. eigenvalues --   -0.53297  -0.51388  -0.50416  -0.49467  -0.48620
 Alpha  occ. eigenvalues --   -0.48566  -0.45077  -0.43170  -0.42535  -0.41431
 Alpha  occ. eigenvalues --   -0.39647  -0.39294  -0.33513  -0.31068  -0.31013
 Alpha  occ. eigenvalues --   -0.27988
 Alpha virt. eigenvalues --   -0.00575   0.01581   0.02113   0.05201   0.08322
 Alpha virt. eigenvalues --    0.08672   0.09859   0.11103   0.11707   0.13303
 Alpha virt. eigenvalues --    0.13485   0.14436   0.15481   0.15491   0.16869
 Alpha virt. eigenvalues --    0.18025   0.18840   0.19939   0.22858   0.23056
 Alpha virt. eigenvalues --    0.23314   0.23431   0.24881   0.25038   0.25238
 Alpha virt. eigenvalues --    0.25908   0.26296   0.27556   0.27591   0.28006
 Alpha virt. eigenvalues --    0.29473   0.29771   0.31749   0.32098   0.32397
 Alpha virt. eigenvalues --    0.33608   0.34768   0.35184   0.36957   0.37020
 Alpha virt. eigenvalues --    0.37585   0.37798   0.39575   0.39688   0.40812
 Alpha virt. eigenvalues --    0.41278   0.41507   0.41697   0.42554   0.43446
 Alpha virt. eigenvalues --    0.44052   0.44161   0.45484   0.45614   0.45676
 Alpha virt. eigenvalues --    0.46686   0.47142   0.48551   0.49611   0.49759
 Alpha virt. eigenvalues --    0.51843   0.52007   0.52265   0.53437   0.54610
 Alpha virt. eigenvalues --    0.55393   0.55623   0.56091   0.56270   0.60696
 Alpha virt. eigenvalues --    0.61532   0.61980   0.64483   0.67250   0.67385
 Alpha virt. eigenvalues --    0.69431   0.69999   0.71980   0.72902   0.73221
 Alpha virt. eigenvalues --    0.73405   0.74244   0.74834   0.75304   0.76740
 Alpha virt. eigenvalues --    0.77005   0.77675   0.78993   0.80413   0.80883
 Alpha virt. eigenvalues --    0.83629   0.84741   0.85569   0.86214   0.87604
 Alpha virt. eigenvalues --    0.89960   0.90192   0.91737   0.93069   0.93364
 Alpha virt. eigenvalues --    0.93377   0.96081   0.97463   0.97743   0.97804
 Alpha virt. eigenvalues --    1.01865   1.03007   1.04626   1.04740   1.04800
 Alpha virt. eigenvalues --    1.09087   1.09193   1.09877   1.11621   1.16302
 Alpha virt. eigenvalues --    1.17161   1.17374   1.19335   1.20522   1.22295
 Alpha virt. eigenvalues --    1.23448   1.24157   1.24687   1.24800   1.26055
 Alpha virt. eigenvalues --    1.27199   1.29084   1.31782   1.32228   1.32239
 Alpha virt. eigenvalues --    1.32380   1.32674   1.36589   1.36741   1.36862
 Alpha virt. eigenvalues --    1.38770   1.43757   1.44386   1.46150   1.46890
 Alpha virt. eigenvalues --    1.47259   1.48708   1.50400   1.52764   1.53184
 Alpha virt. eigenvalues --    1.53997   1.55320   1.55496   1.57933   1.58645
 Alpha virt. eigenvalues --    1.59793   1.60182   1.60551   1.62613   1.64829
 Alpha virt. eigenvalues --    1.65985   1.68411   1.69984   1.70680   1.72304
 Alpha virt. eigenvalues --    1.72472   1.72745   1.75385   1.75843   1.75902
 Alpha virt. eigenvalues --    1.77000   1.77726   1.78102   1.78866   1.80066
 Alpha virt. eigenvalues --    1.86955   1.89133   1.89700   1.90559   1.91153
 Alpha virt. eigenvalues --    1.94954   1.95868   2.01739   2.03169   2.05338
 Alpha virt. eigenvalues --    2.05756   2.06545   2.06751   2.08423   2.09066
 Alpha virt. eigenvalues --    2.10606   2.11311   2.16393   2.16452   2.19876
 Alpha virt. eigenvalues --    2.20200   2.20592   2.23838   2.25045   2.26113
 Alpha virt. eigenvalues --    2.26662   2.26815   2.28005   2.34605   2.35131
 Alpha virt. eigenvalues --    2.37320   2.40971   2.46291   2.46649   2.47206
 Alpha virt. eigenvalues --    2.48617   2.48975   2.52118   2.54146   2.55739
 Alpha virt. eigenvalues --    2.57721   2.57851   2.60608   2.60882   2.61943
 Alpha virt. eigenvalues --    2.64954   2.65491   2.66198   2.66245   2.66924
 Alpha virt. eigenvalues --    2.67873   2.68749   2.69172   2.69324   2.69456
 Alpha virt. eigenvalues --    2.70595   2.73146   2.73838   2.74091   2.74974
 Alpha virt. eigenvalues --    2.75621   2.77401   2.77607   2.78430   2.79554
 Alpha virt. eigenvalues --    2.80212   2.82490   2.83697   2.83823   2.83829
 Alpha virt. eigenvalues --    2.84849   2.85078   2.86495   2.86602   2.87122
 Alpha virt. eigenvalues --    2.88379   2.90298   2.91476   2.92857   2.96517
 Alpha virt. eigenvalues --    2.98963   3.01106   3.02904   3.03163   3.03682
 Alpha virt. eigenvalues --    3.05014   3.07460   3.07476   3.09184   3.11687
 Alpha virt. eigenvalues --    3.12637   3.13782   3.14082   3.14731   3.14835
 Alpha virt. eigenvalues --    3.16534   3.17893   3.18335   3.18664   3.19588
 Alpha virt. eigenvalues --    3.19667   3.21024   3.22733   3.24217   3.25236
 Alpha virt. eigenvalues --    3.26599   3.28804   3.29346   3.30103   3.31556
 Alpha virt. eigenvalues --    3.32170   3.33202   3.35316   3.36120   3.37128
 Alpha virt. eigenvalues --    3.37535   3.38253   3.39497   3.41765   3.42517
 Alpha virt. eigenvalues --    3.43326   3.43415   3.43921   3.45073   3.45879
 Alpha virt. eigenvalues --    3.47455   3.48352   3.49779   3.51220   3.52856
 Alpha virt. eigenvalues --    3.53142   3.53902   3.54294   3.56778   3.58809
 Alpha virt. eigenvalues --    3.59824   3.62703   3.63135   3.63432   3.68469
 Alpha virt. eigenvalues --    3.68820   3.74225   3.74560   3.76230   3.77929
 Alpha virt. eigenvalues --    3.78561   3.87074   3.87134   3.89841   3.92711
 Alpha virt. eigenvalues --    3.97188   3.97290   4.00979   4.01220   4.02742
 Alpha virt. eigenvalues --    4.03697   4.04891   4.07838   4.11039   4.11836
 Alpha virt. eigenvalues --    4.12515   4.13647   4.14833   4.17024   4.17026
 Alpha virt. eigenvalues --    4.17069   4.18349   4.19202   4.19834   4.21092
 Alpha virt. eigenvalues --    4.21585   4.21624   4.26459   4.28303   4.28993
 Alpha virt. eigenvalues --    4.31589   4.31598   4.36559   4.38103   4.45148
 Alpha virt. eigenvalues --    4.55212   4.56056   4.58298   4.60916   4.61596
 Alpha virt. eigenvalues --    4.62082   4.65215   4.66510   4.69754   4.74561
 Alpha virt. eigenvalues --    4.82641   4.83902   4.86113   4.88410   4.88596
 Alpha virt. eigenvalues --    4.90412   5.06725   5.11609   5.16153   5.19193
 Alpha virt. eigenvalues --    5.22010   5.24167   5.27560   5.33904   5.37428
 Alpha virt. eigenvalues --    5.38713   5.53470   5.56172   5.71467  21.99991
 Alpha virt. eigenvalues --   22.36764  22.66288  22.70338  22.70975  22.71598
 Alpha virt. eigenvalues --   22.81305  22.87213  22.91049  22.93276  23.22509
 Alpha virt. eigenvalues --   23.42877
          Condensed to atoms (all electrons):
               1          2          3          4          5          6
     1  C    4.942043   0.507314  -0.060117  -0.038678  -0.060115   0.507312
     2  C    0.507314   5.010031   0.508987  -0.044607  -0.047130  -0.029412
     3  C   -0.060117   0.508987   4.897178   0.525210  -0.039762  -0.047131
     4  C   -0.038678  -0.044607   0.525210   4.876689   0.525209  -0.044605
     5  C   -0.060115  -0.047130  -0.039762   0.525209   4.897180   0.508986
     6  C    0.507312  -0.029412  -0.047131  -0.044605   0.508986   5.010027
     7  C    0.290577  -0.077734   0.006749  -0.002397   0.006747  -0.077729
     8  C   -0.077805   0.008670  -0.000688   0.000028   0.001754  -0.002030
     9  C    0.006786  -0.000695   0.000082  -0.000026   0.000000   0.001739
    10  C   -0.002418   0.000033  -0.000026   0.000006  -0.000026   0.000033
    11  C    0.006786   0.001740   0.000000  -0.000026   0.000082  -0.000695
    12  C   -0.077809  -0.002027   0.001752   0.000029  -0.000688   0.008671
    13  H   -0.035555   0.394266  -0.020100   0.002247   0.000000   0.005284
    14  H    0.004494  -0.031094   0.408211  -0.031604   0.003691  -0.000043
    15  H    0.000938   0.004252  -0.034809   0.410123  -0.034809   0.004252
    16  H    0.004495  -0.000043   0.003692  -0.031605   0.408213  -0.031093
    17  H   -0.035553   0.005283   0.000000   0.002246  -0.020098   0.394262
    18  H    0.001964   0.000318  -0.000104  -0.000077   0.000772   0.002775
    19  H   -0.000171   0.000033   0.000000  -0.000000   0.000000   0.000032
    20  H    0.000114  -0.000006   0.000000   0.000000   0.000000  -0.000006
    21  H   -0.000171   0.000032   0.000000  -0.000000   0.000000   0.000033
    22  H    0.001963   0.002776   0.000772  -0.000077  -0.000104   0.000317
               7          8          9         10         11         12
     1  C    0.290577  -0.077805   0.006786  -0.002418   0.006786  -0.077809
     2  C   -0.077734   0.008670  -0.000695   0.000033   0.001740  -0.002027
     3  C    0.006749  -0.000688   0.000082  -0.000026   0.000000   0.001752
     4  C   -0.002397   0.000028  -0.000026   0.000006  -0.000026   0.000029
     5  C    0.006747   0.001754   0.000000  -0.000026   0.000082  -0.000688
     6  C   -0.077729  -0.002030   0.001739   0.000033  -0.000695   0.008671
     7  C    4.941697   0.507495  -0.060206  -0.038586  -0.060206   0.507497
     8  C    0.507495   5.009893   0.509072  -0.044724  -0.047028  -0.029567
     9  C   -0.060206   0.509072   4.897140   0.525283  -0.039829  -0.047028
    10  C   -0.038586  -0.044724   0.525283   4.876633   0.525282  -0.044724
    11  C   -0.060206  -0.047028  -0.039829   0.525282   4.897139   0.509072
    12  C    0.507497  -0.029567  -0.047028  -0.044724   0.509072   5.009892
    13  H    0.001969   0.000320  -0.000106  -0.000076   0.000766   0.002780
    14  H   -0.000172   0.000033   0.000000  -0.000000   0.000000   0.000032
    15  H    0.000114  -0.000006   0.000000   0.000000   0.000000  -0.000006
    16  H   -0.000172   0.000032   0.000000  -0.000000   0.000000   0.000033
    17  H    0.001970   0.002779   0.000766  -0.000076  -0.000106   0.000320
    18  H   -0.035550   0.394275  -0.020127   0.002250   0.000001   0.005285
    19  H    0.004487  -0.031080   0.408230  -0.031601   0.003686  -0.000039
    20  H    0.000943   0.004246  -0.034800   0.410103  -0.034800   0.004246
    21  H    0.004487  -0.000039   0.003686  -0.031601   0.408230  -0.031080
    22  H   -0.035549   0.005285   0.000001   0.002250  -0.020126   0.394275
              13         14         15         16         17         18
     1  C   -0.035555   0.004494   0.000938   0.004495  -0.035553   0.001964
     2  C    0.394266  -0.031094   0.004252  -0.000043   0.005283   0.000318
     3  C   -0.020100   0.408211  -0.034809   0.003692   0.000000  -0.000104
     4  C    0.002247  -0.031604   0.410123  -0.031605   0.002246  -0.000077
     5  C    0.000000   0.003691  -0.034809   0.408213  -0.020098   0.000772
     6  C    0.005284  -0.000043   0.004252  -0.031093   0.394262   0.002775
     7  C    0.001969  -0.000172   0.000114  -0.000172   0.001970  -0.035550
     8  C    0.000320   0.000033  -0.000006   0.000032   0.002779   0.394275
     9  C   -0.000106   0.000000   0.000000   0.000000   0.000766  -0.020127
    10  C   -0.000076  -0.000000   0.000000  -0.000000  -0.000076   0.002250
    11  C    0.000766   0.000000   0.000000   0.000000  -0.000106   0.000001
    12  C    0.002780   0.000032  -0.000006   0.000033   0.000320   0.005285
    13  H    0.490339  -0.003272  -0.000290   0.000068  -0.000223   0.000049
    14  H   -0.003272   0.510038  -0.004002  -0.000272   0.000068   0.000002
    15  H   -0.000290  -0.004002   0.516838  -0.004002  -0.000290   0.000000
    16  H    0.000068  -0.000272  -0.004002   0.510037  -0.003272   0.000057
    17  H   -0.000223   0.000068  -0.000290  -0.003272   0.490337  -0.001968
    18  H    0.000049   0.000002   0.000000   0.000057  -0.001968   0.490380
    19  H    0.000002   0.000000  -0.000000   0.000000   0.000057  -0.003271
    20  H    0.000000  -0.000000  -0.000000  -0.000000   0.000000  -0.000291
    21  H    0.000057   0.000000  -0.000000   0.000000   0.000002   0.000068
    22  H   -0.001967   0.000057   0.000000   0.000002   0.000049  -0.000223
              19         20         21         22
     1  C   -0.000171   0.000114  -0.000171   0.001963
     2  C    0.000033  -0.000006   0.000032   0.002776
     3  C    0.000000   0.000000   0.000000   0.000772
     4  C   -0.000000   0.000000  -0.000000  -0.000077
     5  C    0.000000   0.000000   0.000000  -0.000104
     6  C    0.000032  -0.000006   0.000033   0.000317
     7  C    0.004487   0.000943   0.004487  -0.035549
     8  C   -0.031080   0.004246  -0.000039   0.005285
     9  C    0.408230  -0.034800   0.003686   0.000001
    10  C   -0.031601   0.410103  -0.031601   0.002250
    11  C    0.003686  -0.034800   0.408230  -0.020126
    12  C   -0.000039   0.004246  -0.031080   0.394275
    13  H    0.000002   0.000000   0.000057  -0.001967
    14  H    0.000000  -0.000000   0.000000   0.000057
    15  H   -0.000000  -0.000000  -0.000000   0.000000
    16  H    0.000000  -0.000000   0.000000   0.000002
    17  H    0.000057   0.000000   0.000002   0.000049
    18  H   -0.003271  -0.000291   0.000068  -0.000223
    19  H    0.510002  -0.003999  -0.000272   0.000068
    20  H   -0.003999   0.516842  -0.003999  -0.000291
    21  H   -0.000272  -0.003999   0.510002  -0.003271
    22  H    0.000068  -0.000291  -0.003271   0.490380
 Mulliken charges:
               1
     1  C    0.113607
     2  C   -0.210986
     3  C   -0.149898
     4  C   -0.148084
     5  C   -0.149903
     6  C   -0.210980
     7  C    0.113569
     8  C   -0.210914
     9  C   -0.149968
    10  C   -0.148014
    11  C   -0.149968
    12  C   -0.210914
    13  H    0.163443
    14  H    0.143831
    15  H    0.141700
    16  H    0.143831
    17  H    0.163446
    18  H    0.163416
    19  H    0.143836
    20  H    0.141699
    21  H    0.143836
    22  H    0.163416
 Sum of Mulliken charges =  -0.00000
 Mulliken charges with hydrogens summed into heavy atoms:
               1
     1  C    0.113607
     2  C   -0.047543
     3  C   -0.006067
     4  C   -0.006384
     5  C   -0.006072
     6  C   -0.047534
     7  C    0.113569
     8  C   -0.047499
     9  C   -0.006132
    10  C   -0.006315
    11  C   -0.006131
    12  C   -0.047499
 Electronic spatial extent (au):  <R**2>=           2304.5245
 Charge=             -0.0000 electrons
 Dipole moment (field-independent basis, Debye):
    X=              0.0001    Y=              0.0000    Z=              0.0001  Tot=              0.0001
 Quadrupole moment (field-independent basis, Debye-Ang):
   XX=            -61.8746   YY=            -63.2084   ZZ=            -75.8046
   XY=             -0.0001   XZ=             -0.0002   YZ=             -0.0001
 Traceless Quadrupole moment (field-independent basis, Debye-Ang):
   XX=              5.0880   YY=              3.7542   ZZ=             -8.8421
   XY=             -0.0001   XZ=             -0.0002   YZ=             -0.0001
 Octapole moment (field-independent basis, Debye-Ang**2):
  XXX=              0.0009  YYY=              0.0004  ZZZ=              0.0002  XYY=              0.0025
  XXY=              0.0003  XXZ=              0.0008  XZZ=             -0.0003  YZZ=             -0.0002
  YYZ=              0.0003  XYZ=             11.8889
 Hexadecapole moment (field-independent basis, Debye-Ang**3):
 XXXX=          -2308.4336 YYYY=           -503.2678 ZZZZ=           -152.9720 XXXY=             -0.0014
 XXXZ=             -0.0029 YYYX=             -0.0015 YYYZ=             -0.0007 ZZZX=             -0.0008
 ZZZY=             -0.0003 XXYY=           -474.3183 XXZZ=           -495.5720 YYZZ=           -113.7621
 XXYZ=              0.0031 YYXZ=             -0.0011 ZZXY=              0.0008
 N-N= 5.999589566085D+02 E-N=-2.273737292579D+03  KE= 4.608046208985D+02
 ******************************Gaussian NBO Version 3.1******************************
             N A T U R A L   A T O M I C   O R B I T A L   A N D
          N A T U R A L   B O N D   O R B I T A L   A N A L Y S I S
 ******************************Gaussian NBO Version 3.1******************************
       /RESON  / : Allow strongly delocalized NBO set

 Analyzing the SCF density

 Job title: Structure697                                                    

 Storage needed:    561778 in NPA,    748307 in NBO (1048573404 available)
 GSVD:  LWork=       71432 too small for GESVD, short by      156810 words or      156810 for optimal perf.


 NATURAL POPULATIONS:  Natural atomic orbital occupancies 
                                                          
   NAO  Atom  No  lang   Type(AO)    Occupancy      Energy
 ----------------------------------------------------------
     1    C    1  S      Cor( 1S)     1.99911     -10.39163
     2    C    1  S      Val( 2S)     0.91105      -0.20189
     3    C    1  S      Ryd( 3S)     0.00085       1.42826
     4    C    1  S      Ryd( 4S)     0.00018       1.71915
     5    C    1  S      Ryd( 5S)     0.00000      21.32472
     6    C    1  px     Val( 2p)     1.04180      -0.05640
     7    C    1  px     Ryd( 3p)     0.00629       1.24935
     8    C    1  px     Ryd( 4p)     0.00044       1.88202
     9    C    1  py     Val( 2p)     1.06781      -0.07414
    10    C    1  py     Ryd( 3p)     0.00417       1.14591
    11    C    1  py     Ryd( 4p)     0.00044       1.49091
    12    C    1  pz     Val( 2p)     1.00927      -0.10694
    13    C    1  pz     Ryd( 3p)     0.00175       0.82248
    14    C    1  pz     Ryd( 4p)     0.00016       1.33542
    15    C    1  dxy    Ryd( 3d)     0.00151       2.31961
    16    C    1  dxy    Ryd( 4d)     0.00042       3.39159
    17    C    1  dxz    Ryd( 3d)     0.00035       1.36947
    18    C    1  dxz    Ryd( 4d)     0.00029       3.34257
    19    C    1  dyz    Ryd( 3d)     0.00024       1.51513
    20    C    1  dyz    Ryd( 4d)     0.00031       3.35366
    21    C    1  dx2y2  Ryd( 3d)     0.00132       2.40079
    22    C    1  dx2y2  Ryd( 4d)     0.00058       3.43920
    23    C    1  dz2    Ryd( 3d)     0.00037       1.74351
    24    C    1  dz2    Ryd( 4d)     0.00026       3.53294
    25    C    1  f(0)   Ryd( 4f)     0.00010       3.61188
    26    C    1  f(C1)  Ryd( 4f)     0.00008       3.72015
    27    C    1  f(S1)  Ryd( 4f)     0.00008       3.55134
    28    C    1  f(C2)  Ryd( 4f)     0.00004       3.67827
    29    C    1  f(S2)  Ryd( 4f)     0.00005       3.75311
    30    C    1  f(C3)  Ryd( 4f)     0.00009       4.29307
    31    C    1  f(S3)  Ryd( 4f)     0.00006       4.25174
 
    32    C    2  S      Cor( 1S)     1.99916     -10.38178
    33    C    2  S      Val( 2S)     0.96956      -0.22786
    34    C    2  S      Ryd( 3S)     0.00102       1.32969
    35    C    2  S      Ryd( 4S)     0.00021       1.49793
    36    C    2  S      Ryd( 5S)     0.00001      21.38327
    37    C    2  px     Val( 2p)     1.07922      -0.06729
    38    C    2  px     Ryd( 3p)     0.00313       1.15863
    39    C    2  px     Ryd( 4p)     0.00018       2.43133
    40    C    2  py     Val( 2p)     1.11694      -0.07151
    41    C    2  py     Ryd( 3p)     0.00386       1.04923
    42    C    2  py     Ryd( 4p)     0.00027       2.51486
    43    C    2  pz     Val( 2p)     1.01422      -0.11041
    44    C    2  pz     Ryd( 3p)     0.00165       0.71288
    45    C    2  pz     Ryd( 4p)     0.00034       1.60093
    46    C    2  dxy    Ryd( 3d)     0.00172       1.77681
    47    C    2  dxy    Ryd( 4d)     0.00069       3.51922
    48    C    2  dxz    Ryd( 3d)     0.00035       1.45533
    49    C    2  dxz    Ryd( 4d)     0.00027       3.07790
    50    C    2  dyz    Ryd( 3d)     0.00061       1.46814
    51    C    2  dyz    Ryd( 4d)     0.00013       3.09734
    52    C    2  dx2y2  Ryd( 3d)     0.00151       1.77720
    53    C    2  dx2y2  Ryd( 4d)     0.00042       3.44258
    54    C    2  dz2    Ryd( 3d)     0.00085       1.52311
    55    C    2  dz2    Ryd( 4d)     0.00005       3.26101
    56    C    2  f(0)   Ryd( 4f)     0.00026       3.45459
    57    C    2  f(C1)  Ryd( 4f)     0.00014       3.55625
    58    C    2  f(S1)  Ryd( 4f)     0.00022       3.39791
    59    C    2  f(C2)  Ryd( 4f)     0.00007       3.55511
    60    C    2  f(S2)  Ryd( 4f)     0.00008       3.57754
    61    C    2  f(C3)  Ryd( 4f)     0.00012       4.20386
    62    C    2  f(S3)  Ryd( 4f)     0.00006       3.94934
 
    63    C    3  S      Cor( 1S)     1.99924     -10.38260
    64    C    3  S      Val( 2S)     0.97565      -0.23434
    65    C    3  S      Ryd( 3S)     0.00094       1.07385
    66    C    3  S      Ryd( 4S)     0.00017       1.43214
    67    C    3  S      Ryd( 5S)     0.00000      21.59552
    68    C    3  px     Val( 2p)     1.07707      -0.06460
    69    C    3  px     Ryd( 3p)     0.00388       1.05313
    70    C    3  px     Ryd( 4p)     0.00026       2.19418
    71    C    3  py     Val( 2p)     1.12483      -0.07528
    72    C    3  py     Ryd( 3p)     0.00415       1.11212
    73    C    3  py     Ryd( 4p)     0.00018       2.04559
    74    C    3  pz     Val( 2p)     1.00999      -0.11083
    75    C    3  pz     Ryd( 3p)     0.00171       0.75703
    76    C    3  pz     Ryd( 4p)     0.00033       1.43267
    77    C    3  dxy    Ryd( 3d)     0.00118       1.83763
    78    C    3  dxy    Ryd( 4d)     0.00067       3.50450
    79    C    3  dxz    Ryd( 3d)     0.00029       1.43873
    80    C    3  dxz    Ryd( 4d)     0.00025       3.03713
    81    C    3  dyz    Ryd( 3d)     0.00053       1.43007
    82    C    3  dyz    Ryd( 4d)     0.00016       3.05999
    83    C    3  dx2y2  Ryd( 3d)     0.00177       1.68687
    84    C    3  dx2y2  Ryd( 4d)     0.00052       3.39447
    85    C    3  dz2    Ryd( 3d)     0.00061       1.50545
    86    C    3  dz2    Ryd( 4d)     0.00008       3.21445
    87    C    3  f(0)   Ryd( 4f)     0.00022       3.43153
    88    C    3  f(C1)  Ryd( 4f)     0.00013       3.56534
    89    C    3  f(S1)  Ryd( 4f)     0.00017       3.35810
    90    C    3  f(C2)  Ryd( 4f)     0.00006       3.55092
    91    C    3  f(S2)  Ryd( 4f)     0.00005       3.53605
    92    C    3  f(C3)  Ryd( 4f)     0.00007       4.19467
    93    C    3  f(S3)  Ryd( 4f)     0.00007       3.90140
 
    94    C    4  S      Cor( 1S)     1.99924     -10.38110
    95    C    4  S      Val( 2S)     0.97625      -0.23471
    96    C    4  S      Ryd( 3S)     0.00093       1.08996
    97    C    4  S      Ryd( 4S)     0.00016       1.38644
    98    C    4  S      Ryd( 5S)     0.00000      21.64341
    99    C    4  px     Val( 2p)     1.16994      -0.07091
   100    C    4  px     Ryd( 3p)     0.00458       1.19210
   101    C    4  px     Ryd( 4p)     0.00017       2.09562
   102    C    4  py     Val( 2p)     1.04385      -0.06838
   103    C    4  py     Ryd( 3p)     0.00346       0.97120
   104    C    4  py     Ryd( 4p)     0.00033       2.17552
   105    C    4  pz     Val( 2p)     1.00527      -0.11031
   106    C    4  pz     Ryd( 3p)     0.00188       0.72184
   107    C    4  pz     Ryd( 4p)     0.00039       1.44385
   108    C    4  dxy    Ryd( 3d)     0.00175       1.70212
   109    C    4  dxy    Ryd( 4d)     0.00048       3.26882
   110    C    4  dxz    Ryd( 3d)     0.00049       1.38837
   111    C    4  dxz    Ryd( 4d)     0.00012       2.84743
   112    C    4  dyz    Ryd( 3d)     0.00042       1.57922
   113    C    4  dyz    Ryd( 4d)     0.00019       3.14132
   114    C    4  dx2y2  Ryd( 3d)     0.00091       1.94655
   115    C    4  dx2y2  Ryd( 4d)     0.00072       3.48129
   116    C    4  dz2    Ryd( 3d)     0.00056       1.57983
   117    C    4  dz2    Ryd( 4d)     0.00014       3.17442
   118    C    4  f(0)   Ryd( 4f)     0.00015       3.41407
   119    C    4  f(C1)  Ryd( 4f)     0.00018       3.46706
   120    C    4  f(S1)  Ryd( 4f)     0.00016       3.49680
   121    C    4  f(C2)  Ryd( 4f)     0.00005       3.43534
   122    C    4  f(S2)  Ryd( 4f)     0.00008       3.63134
   123    C    4  f(C3)  Ryd( 4f)     0.00007       4.18186
   124    C    4  f(S3)  Ryd( 4f)     0.00007       3.87050
 
   125    C    5  S      Cor( 1S)     1.99924     -10.38260
   126    C    5  S      Val( 2S)     0.97565      -0.23434
   127    C    5  S      Ryd( 3S)     0.00094       1.07385
   128    C    5  S      Ryd( 4S)     0.00017       1.43215
   129    C    5  S      Ryd( 5S)     0.00000      21.59552
   130    C    5  px     Val( 2p)     1.07707      -0.06460
   131    C    5  px     Ryd( 3p)     0.00388       1.05313
   132    C    5  px     Ryd( 4p)     0.00026       2.19418
   133    C    5  py     Val( 2p)     1.12483      -0.07527
   134    C    5  py     Ryd( 3p)     0.00415       1.11213
   135    C    5  py     Ryd( 4p)     0.00018       2.04561
   136    C    5  pz     Val( 2p)     1.00998      -0.11083
   137    C    5  pz     Ryd( 3p)     0.00171       0.75700
   138    C    5  pz     Ryd( 4p)     0.00033       1.43264
   139    C    5  dxy    Ryd( 3d)     0.00118       1.83765
   140    C    5  dxy    Ryd( 4d)     0.00067       3.50452
   141    C    5  dxz    Ryd( 3d)     0.00029       1.43872
   142    C    5  dxz    Ryd( 4d)     0.00025       3.03711
   143    C    5  dyz    Ryd( 3d)     0.00053       1.43004
   144    C    5  dyz    Ryd( 4d)     0.00016       3.05994
   145    C    5  dx2y2  Ryd( 3d)     0.00177       1.68688
   146    C    5  dx2y2  Ryd( 4d)     0.00052       3.39447
   147    C    5  dz2    Ryd( 3d)     0.00061       1.50549
   148    C    5  dz2    Ryd( 4d)     0.00008       3.21448
   149    C    5  f(0)   Ryd( 4f)     0.00022       3.43151
   150    C    5  f(C1)  Ryd( 4f)     0.00013       3.56535
   151    C    5  f(S1)  Ryd( 4f)     0.00017       3.35813
   152    C    5  f(C2)  Ryd( 4f)     0.00006       3.55090
   153    C    5  f(S2)  Ryd( 4f)     0.00005       3.53601
   154    C    5  f(C3)  Ryd( 4f)     0.00007       4.19471
   155    C    5  f(S3)  Ryd( 4f)     0.00007       3.90140
 
   156    C    6  S      Cor( 1S)     1.99916     -10.38178
   157    C    6  S      Val( 2S)     0.96956      -0.22786
   158    C    6  S      Ryd( 3S)     0.00102       1.32970
   159    C    6  S      Ryd( 4S)     0.00021       1.49793
   160    C    6  S      Ryd( 5S)     0.00001      21.38327
   161    C    6  px     Val( 2p)     1.07922      -0.06729
   162    C    6  px     Ryd( 3p)     0.00313       1.15863
   163    C    6  px     Ryd( 4p)     0.00018       2.43133
   164    C    6  py     Val( 2p)     1.11694      -0.07151
   165    C    6  py     Ryd( 3p)     0.00386       1.04924
   166    C    6  py     Ryd( 4p)     0.00027       2.51486
   167    C    6  pz     Val( 2p)     1.01422      -0.11041
   168    C    6  pz     Ryd( 3p)     0.00165       0.71288
   169    C    6  pz     Ryd( 4p)     0.00034       1.60093
   170    C    6  dxy    Ryd( 3d)     0.00172       1.77681
   171    C    6  dxy    Ryd( 4d)     0.00069       3.51922
   172    C    6  dxz    Ryd( 3d)     0.00035       1.45533
   173    C    6  dxz    Ryd( 4d)     0.00027       3.07789
   174    C    6  dyz    Ryd( 3d)     0.00061       1.46814
   175    C    6  dyz    Ryd( 4d)     0.00013       3.09733
   176    C    6  dx2y2  Ryd( 3d)     0.00151       1.77720
   177    C    6  dx2y2  Ryd( 4d)     0.00042       3.44258
   178    C    6  dz2    Ryd( 3d)     0.00085       1.52311
   179    C    6  dz2    Ryd( 4d)     0.00005       3.26101
   180    C    6  f(0)   Ryd( 4f)     0.00026       3.45459
   181    C    6  f(C1)  Ryd( 4f)     0.00014       3.55625
   182    C    6  f(S1)  Ryd( 4f)     0.00022       3.39791
   183    C    6  f(C2)  Ryd( 4f)     0.00007       3.55511
   184    C    6  f(S2)  Ryd( 4f)     0.00008       3.57754
   185    C    6  f(C3)  Ryd( 4f)     0.00012       4.20386
   186    C    6  f(S3)  Ryd( 4f)     0.00006       3.94934
 
   187    C    7  S      Cor( 1S)     1.99911     -10.39161
   188    C    7  S      Val( 2S)     0.91103      -0.20187
   189    C    7  S      Ryd( 3S)     0.00085       1.42820
   190    C    7  S      Ryd( 4S)     0.00018       1.71929
   191    C    7  S      Ryd( 5S)     0.00000      21.32457
   192    C    7  px     Val( 2p)     1.04184      -0.05641
   193    C    7  px     Ryd( 3p)     0.00629       1.24938
   194    C    7  px     Ryd( 4p)     0.00044       1.88200
   195    C    7  py     Val( 2p)     1.06783      -0.07415
   196    C    7  py     Ryd( 3p)     0.00417       1.14590
   197    C    7  py     Ryd( 4p)     0.00044       1.49090
   198    C    7  pz     Val( 2p)     1.00929      -0.10694
   199    C    7  pz     Ryd( 3p)     0.00175       0.82250
   200    C    7  pz     Ryd( 4p)     0.00016       1.33542
   201    C    7  dxy    Ryd( 3d)     0.00151       2.31939
   202    C    7  dxy    Ryd( 4d)     0.00042       3.39189
   203    C    7  dxz    Ryd( 3d)     0.00035       1.36945
   204    C    7  dxz    Ryd( 4d)     0.00029       3.34264
   205    C    7  dyz    Ryd( 3d)     0.00024       1.51510
   206    C    7  dyz    Ryd( 4d)     0.00031       3.35374
   207    C    7  dx2y2  Ryd( 3d)     0.00132       2.40048
   208    C    7  dx2y2  Ryd( 4d)     0.00058       3.43934
   209    C    7  dz2    Ryd( 3d)     0.00037       1.74333
   210    C    7  dz2    Ryd( 4d)     0.00026       3.53299
   211    C    7  f(0)   Ryd( 4f)     0.00010       3.61195
   212    C    7  f(C1)  Ryd( 4f)     0.00008       3.72020
   213    C    7  f(S1)  Ryd( 4f)     0.00008       3.55136
   214    C    7  f(C2)  Ryd( 4f)     0.00004       3.67829
   215    C    7  f(S2)  Ryd( 4f)     0.00005       3.75319
   216    C    7  f(C3)  Ryd( 4f)     0.00009       4.29310
   217    C    7  f(S3)  Ryd( 4f)     0.00006       4.25176
 
   218    C    8  S      Cor( 1S)     1.99916     -10.38179
   219    C    8  S      Val( 2S)     0.96955      -0.22786
   220    C    8  S      Ryd( 3S)     0.00102       1.32979
   221    C    8  S      Ryd( 4S)     0.00021       1.49803
   222    C    8  S      Ryd( 5S)     0.00001      21.38322
   223    C    8  px     Val( 2p)     1.07922      -0.06729
   224    C    8  px     Ryd( 3p)     0.00313       1.15859
   225    C    8  px     Ryd( 4p)     0.00018       2.43151
   226    C    8  py     Val( 2p)     1.11694      -0.07151
   227    C    8  py     Ryd( 3p)     0.00386       1.04928
   228    C    8  py     Ryd( 4p)     0.00027       2.51494
   229    C    8  pz     Val( 2p)     1.01421      -0.11041
   230    C    8  pz     Ryd( 3p)     0.00165       0.71285
   231    C    8  pz     Ryd( 4p)     0.00034       1.60099
   232    C    8  dxy    Ryd( 3d)     0.00172       1.77670
   233    C    8  dxy    Ryd( 4d)     0.00069       3.51929
   234    C    8  dxz    Ryd( 3d)     0.00035       1.45525
   235    C    8  dxz    Ryd( 4d)     0.00027       3.07798
   236    C    8  dyz    Ryd( 3d)     0.00061       1.46802
   237    C    8  dyz    Ryd( 4d)     0.00013       3.09740
   238    C    8  dx2y2  Ryd( 3d)     0.00151       1.77712
   239    C    8  dx2y2  Ryd( 4d)     0.00042       3.44266
   240    C    8  dz2    Ryd( 3d)     0.00085       1.52307
   241    C    8  dz2    Ryd( 4d)     0.00005       3.26111
   242    C    8  f(0)   Ryd( 4f)     0.00026       3.45459
   243    C    8  f(C1)  Ryd( 4f)     0.00014       3.55627
   244    C    8  f(S1)  Ryd( 4f)     0.00022       3.39791
   245    C    8  f(C2)  Ryd( 4f)     0.00007       3.55513
   246    C    8  f(S2)  Ryd( 4f)     0.00008       3.57751
   247    C    8  f(C3)  Ryd( 4f)     0.00012       4.20395
   248    C    8  f(S3)  Ryd( 4f)     0.00006       3.94934
 
   249    C    9  S      Cor( 1S)     1.99924     -10.38260
   250    C    9  S      Val( 2S)     0.97566      -0.23435
   251    C    9  S      Ryd( 3S)     0.00094       1.07377
   252    C    9  S      Ryd( 4S)     0.00017       1.43214
   253    C    9  S      Ryd( 5S)     0.00000      21.59561
   254    C    9  px     Val( 2p)     1.07708      -0.06460
   255    C    9  px     Ryd( 3p)     0.00388       1.05313
   256    C    9  px     Ryd( 4p)     0.00026       2.19404
   257    C    9  py     Val( 2p)     1.12483      -0.07527
   258    C    9  py     Ryd( 3p)     0.00415       1.11205
   259    C    9  py     Ryd( 4p)     0.00018       2.04555
   260    C    9  pz     Val( 2p)     1.00999      -0.11084
   261    C    9  pz     Ryd( 3p)     0.00171       0.75698
   262    C    9  pz     Ryd( 4p)     0.00033       1.43268
   263    C    9  dxy    Ryd( 3d)     0.00118       1.83769
   264    C    9  dxy    Ryd( 4d)     0.00067       3.50441
   265    C    9  dxz    Ryd( 3d)     0.00029       1.43882
   266    C    9  dxz    Ryd( 4d)     0.00025       3.03697
   267    C    9  dyz    Ryd( 3d)     0.00053       1.43016
   268    C    9  dyz    Ryd( 4d)     0.00016       3.05981
   269    C    9  dx2y2  Ryd( 3d)     0.00177       1.68696
   270    C    9  dx2y2  Ryd( 4d)     0.00052       3.39433
   271    C    9  dz2    Ryd( 3d)     0.00061       1.50554
   272    C    9  dz2    Ryd( 4d)     0.00008       3.21434
   273    C    9  f(0)   Ryd( 4f)     0.00022       3.43150
   274    C    9  f(C1)  Ryd( 4f)     0.00013       3.56534
   275    C    9  f(S1)  Ryd( 4f)     0.00017       3.35813
   276    C    9  f(C2)  Ryd( 4f)     0.00006       3.55087
   277    C    9  f(S2)  Ryd( 4f)     0.00005       3.53600
   278    C    9  f(C3)  Ryd( 4f)     0.00007       4.19458
   279    C    9  f(S3)  Ryd( 4f)     0.00007       3.90141
 
   280    C   10  S      Cor( 1S)     1.99924     -10.38114
   281    C   10  S      Val( 2S)     0.97630      -0.23476
   282    C   10  S      Ryd( 3S)     0.00093       1.08999
   283    C   10  S      Ryd( 4S)     0.00016       1.38665
   284    C   10  S      Ryd( 5S)     0.00000      21.64346
   285    C   10  px     Val( 2p)     1.16991      -0.07090
   286    C   10  px     Ryd( 3p)     0.00458       1.19206
   287    C   10  px     Ryd( 4p)     0.00017       2.09566
   288    C   10  py     Val( 2p)     1.04382      -0.06837
   289    C   10  py     Ryd( 3p)     0.00346       0.97116
   290    C   10  py     Ryd( 4p)     0.00033       2.17556
   291    C   10  pz     Val( 2p)     1.00525      -0.11031
   292    C   10  pz     Ryd( 3p)     0.00188       0.72176
   293    C   10  pz     Ryd( 4p)     0.00039       1.44385
   294    C   10  dxy    Ryd( 3d)     0.00175       1.70197
   295    C   10  dxy    Ryd( 4d)     0.00048       3.26884
   296    C   10  dxz    Ryd( 3d)     0.00049       1.38831
   297    C   10  dxz    Ryd( 4d)     0.00012       2.84739
   298    C   10  dyz    Ryd( 3d)     0.00042       1.57914
   299    C   10  dyz    Ryd( 4d)     0.00019       3.14128
   300    C   10  dx2y2  Ryd( 3d)     0.00091       1.94649
   301    C   10  dx2y2  Ryd( 4d)     0.00072       3.48133
   302    C   10  dz2    Ryd( 3d)     0.00056       1.57982
   303    C   10  dz2    Ryd( 4d)     0.00014       3.17447
   304    C   10  f(0)   Ryd( 4f)     0.00015       3.41393
   305    C   10  f(C1)  Ryd( 4f)     0.00018       3.46697
   306    C   10  f(S1)  Ryd( 4f)     0.00016       3.49675
   307    C   10  f(C2)  Ryd( 4f)     0.00005       3.43524
   308    C   10  f(S2)  Ryd( 4f)     0.00008       3.63120
   309    C   10  f(C3)  Ryd( 4f)     0.00007       4.18172
   310    C   10  f(S3)  Ryd( 4f)     0.00007       3.87049
 
   311    C   11  S      Cor( 1S)     1.99924     -10.38260
   312    C   11  S      Val( 2S)     0.97566      -0.23435
   313    C   11  S      Ryd( 3S)     0.00094       1.07377
   314    C   11  S      Ryd( 4S)     0.00017       1.43214
   315    C   11  S      Ryd( 5S)     0.00000      21.59561
   316    C   11  px     Val( 2p)     1.07708      -0.06460
   317    C   11  px     Ryd( 3p)     0.00388       1.05313
   318    C   11  px     Ryd( 4p)     0.00026       2.19404
   319    C   11  py     Val( 2p)     1.12483      -0.07527
   320    C   11  py     Ryd( 3p)     0.00415       1.11205
   321    C   11  py     Ryd( 4p)     0.00018       2.04555
   322    C   11  pz     Val( 2p)     1.00999      -0.11084
   323    C   11  pz     Ryd( 3p)     0.00171       0.75698
   324    C   11  pz     Ryd( 4p)     0.00033       1.43268
   325    C   11  dxy    Ryd( 3d)     0.00118       1.83769
   326    C   11  dxy    Ryd( 4d)     0.00067       3.50441
   327    C   11  dxz    Ryd( 3d)     0.00029       1.43882
   328    C   11  dxz    Ryd( 4d)     0.00025       3.03697
   329    C   11  dyz    Ryd( 3d)     0.00053       1.43016
   330    C   11  dyz    Ryd( 4d)     0.00016       3.05981
   331    C   11  dx2y2  Ryd( 3d)     0.00177       1.68696
   332    C   11  dx2y2  Ryd( 4d)     0.00052       3.39433
   333    C   11  dz2    Ryd( 3d)     0.00061       1.50554
   334    C   11  dz2    Ryd( 4d)     0.00008       3.21434
   335    C   11  f(0)   Ryd( 4f)     0.00022       3.43150
   336    C   11  f(C1)  Ryd( 4f)     0.00013       3.56534
   337    C   11  f(S1)  Ryd( 4f)     0.00017       3.35813
   338    C   11  f(C2)  Ryd( 4f)     0.00006       3.55087
   339    C   11  f(S2)  Ryd( 4f)     0.00005       3.53600
   340    C   11  f(C3)  Ryd( 4f)     0.00007       4.19458
   341    C   11  f(S3)  Ryd( 4f)     0.00007       3.90141
 
   342    C   12  S      Cor( 1S)     1.99916     -10.38179
   343    C   12  S      Val( 2S)     0.96955      -0.22786
   344    C   12  S      Ryd( 3S)     0.00102       1.32979
   345    C   12  S      Ryd( 4S)     0.00021       1.49803
   346    C   12  S      Ryd( 5S)     0.00001      21.38322
   347    C   12  px     Val( 2p)     1.07922      -0.06729
   348    C   12  px     Ryd( 3p)     0.00313       1.15859
   349    C   12  px     Ryd( 4p)     0.00018       2.43151
   350    C   12  py     Val( 2p)     1.11694      -0.07151
   351    C   12  py     Ryd( 3p)     0.00386       1.04928
   352    C   12  py     Ryd( 4p)     0.00027       2.51494
   353    C   12  pz     Val( 2p)     1.01421      -0.11041
   354    C   12  pz     Ryd( 3p)     0.00165       0.71285
   355    C   12  pz     Ryd( 4p)     0.00034       1.60099
   356    C   12  dxy    Ryd( 3d)     0.00172       1.77670
   357    C   12  dxy    Ryd( 4d)     0.00069       3.51929
   358    C   12  dxz    Ryd( 3d)     0.00035       1.45525
   359    C   12  dxz    Ryd( 4d)     0.00027       3.07798
   360    C   12  dyz    Ryd( 3d)     0.00061       1.46802
   361    C   12  dyz    Ryd( 4d)     0.00013       3.09740
   362    C   12  dx2y2  Ryd( 3d)     0.00151       1.77712
   363    C   12  dx2y2  Ryd( 4d)     0.00042       3.44266
   364    C   12  dz2    Ryd( 3d)     0.00085       1.52307
   365    C   12  dz2    Ryd( 4d)     0.00005       3.26111
   366    C   12  f(0)   Ryd( 4f)     0.00026       3.45459
   367    C   12  f(C1)  Ryd( 4f)     0.00014       3.55627
   368    C   12  f(S1)  Ryd( 4f)     0.00022       3.39791
   369    C   12  f(C2)  Ryd( 4f)     0.00007       3.55513
   370    C   12  f(S2)  Ryd( 4f)     0.00008       3.57751
   371    C   12  f(C3)  Ryd( 4f)     0.00012       4.20395
   372    C   12  f(S3)  Ryd( 4f)     0.00006       3.94934
 
   373    H   13  S      Val( 1S)     0.78487       0.05135
   374    H   13  S      Ryd( 2S)     0.00054       1.37299
   375    H   13  S      Ryd( 3S)     0.00013       1.57154
   376    H   13  px     Ryd( 2p)     0.00018       2.86739
   377    H   13  py     Ryd( 2p)     0.00031       2.90006
   378    H   13  pz     Ryd( 2p)     0.00012       2.30569
 
   379    H   14  S      Val( 1S)     0.78494       0.05086
   380    H   14  S      Ryd( 2S)     0.00037       1.03099
   381    H   14  S      Ryd( 3S)     0.00018       1.74715
   382    H   14  px     Ryd( 2p)     0.00014       2.84897
   383    H   14  py     Ryd( 2p)     0.00029       2.88222
   384    H   14  pz     Ryd( 2p)     0.00009       2.27083
 
   385    H   15  S      Val( 1S)     0.78698       0.05166
   386    H   15  S      Ryd( 2S)     0.00035       0.96409
   387    H   15  S      Ryd( 3S)     0.00018       1.82465
   388    H   15  px     Ryd( 2p)     0.00042       3.02781
   389    H   15  py     Ryd( 2p)     0.00005       2.71930
   390    H   15  pz     Ryd( 2p)     0.00007       2.24925
 
   391    H   16  S      Val( 1S)     0.78494       0.05087
   392    H   16  S      Ryd( 2S)     0.00037       1.03100
   393    H   16  S      Ryd( 3S)     0.00018       1.74714
   394    H   16  px     Ryd( 2p)     0.00014       2.84898
   395    H   16  py     Ryd( 2p)     0.00029       2.88226
   396    H   16  pz     Ryd( 2p)     0.00009       2.27080
 
   397    H   17  S      Val( 1S)     0.78487       0.05135
   398    H   17  S      Ryd( 2S)     0.00054       1.37299
   399    H   17  S      Ryd( 3S)     0.00013       1.57154
   400    H   17  px     Ryd( 2p)     0.00018       2.86739
   401    H   17  py     Ryd( 2p)     0.00031       2.90006
   402    H   17  pz     Ryd( 2p)     0.00012       2.30569
 
   403    H   18  S      Val( 1S)     0.78488       0.05132
   404    H   18  S      Ryd( 2S)     0.00054       1.37291
   405    H   18  S      Ryd( 3S)     0.00013       1.57165
   406    H   18  px     Ryd( 2p)     0.00018       2.86733
   407    H   18  py     Ryd( 2p)     0.00031       2.90002
   408    H   18  pz     Ryd( 2p)     0.00012       2.30559
 
   409    H   19  S      Val( 1S)     0.78494       0.05092
   410    H   19  S      Ryd( 2S)     0.00036       1.03126
   411    H   19  S      Ryd( 3S)     0.00018       1.74685
   412    H   19  px     Ryd( 2p)     0.00014       2.84907
   413    H   19  py     Ryd( 2p)     0.00029       2.88235
   414    H   19  pz     Ryd( 2p)     0.00009       2.27093
 
   415    H   20  S      Val( 1S)     0.78700       0.05166
   416    H   20  S      Ryd( 2S)     0.00035       0.96394
   417    H   20  S      Ryd( 3S)     0.00018       1.82476
   418    H   20  px     Ryd( 2p)     0.00042       3.02776
   419    H   20  py     Ryd( 2p)     0.00005       2.71926
   420    H   20  pz     Ryd( 2p)     0.00007       2.24920
 
   421    H   21  S      Val( 1S)     0.78494       0.05092
   422    H   21  S      Ryd( 2S)     0.00036       1.03126
   423    H   21  S      Ryd( 3S)     0.00018       1.74685
   424    H   21  px     Ryd( 2p)     0.00014       2.84907
   425    H   21  py     Ryd( 2p)     0.00029       2.88235
   426    H   21  pz     Ryd( 2p)     0.00009       2.27093
 
   427    H   22  S      Val( 1S)     0.78488       0.05132
   428    H   22  S      Ryd( 2S)     0.00054       1.37291
   429    H   22  S      Ryd( 3S)     0.00013       1.57165
   430    H   22  px     Ryd( 2p)     0.00018       2.86733
   431    H   22  py     Ryd( 2p)     0.00031       2.90002
   432    H   22  pz     Ryd( 2p)     0.00012       2.30559

 WARNING:  Population inversion found on atom  C    1
           Population inversion found on atom  C    7


 Summary of Natural Population Analysis:                  
                                                          
                                       Natural Population 
                Natural  -----------------------------------------------
    Atom  No    Charge         Core      Valence    Rydberg      Total
 -----------------------------------------------------------------------
      C    1   -0.04948      1.99911     4.02993    0.02044     6.04948
      C    2   -0.19732      1.99916     4.17995    0.01821     6.19732
      C    3   -0.20523      1.99924     4.18753    0.01846     6.20523
      C    4   -0.21300      1.99924     4.19532    0.01845     6.21300
      C    5   -0.20523      1.99924     4.18753    0.01846     6.20523
      C    6   -0.19732      1.99916     4.17995    0.01821     6.19732
      C    7   -0.04954      1.99911     4.02999    0.02044     6.04954
      C    8   -0.19730      1.99916     4.17992    0.01821     6.19730
      C    9   -0.20525      1.99924     4.18756    0.01845     6.20525
      C   10   -0.21296      1.99924     4.19528    0.01844     6.21296
      C   11   -0.20525      1.99924     4.18756    0.01845     6.20525
      C   12   -0.19730      1.99916     4.17992    0.01821     6.19730
      H   13    0.21384      0.00000     0.78487    0.00129     0.78616
      H   14    0.21399      0.00000     0.78494    0.00108     0.78601
      H   15    0.21196      0.00000     0.78698    0.00106     0.78804
      H   16    0.21399      0.00000     0.78494    0.00108     0.78601
      H   17    0.21384      0.00000     0.78487    0.00129     0.78616
      H   18    0.21383      0.00000     0.78488    0.00129     0.78617
      H   19    0.21399      0.00000     0.78494    0.00108     0.78601
      H   20    0.21194      0.00000     0.78700    0.00106     0.78806
      H   21    0.21399      0.00000     0.78494    0.00108     0.78601
      H   22    0.21383      0.00000     0.78488    0.00129     0.78617
 =======================================================================
   * Total *    0.00000     23.99031    57.77365    0.23604    82.00000

                                 Natural Population      
 --------------------------------------------------------
   Core                      23.99031 ( 99.9596% of  24)
   Valence                   57.77365 ( 99.6097% of  58)
   Natural Minimal Basis     81.76396 ( 99.7121% of  82)
   Natural Rydberg Basis      0.23604 (  0.2879% of  82)
 --------------------------------------------------------

    Atom  No          Natural Electron Configuration
 ----------------------------------------------------------------------------
      C    1      [core]2S( 0.91)2p( 3.12)3p( 0.01)
      C    2      [core]2S( 0.97)2p( 3.21)3p( 0.01)3d( 0.01)
      C    3      [core]2S( 0.98)2p( 3.21)3p( 0.01)
      C    4      [core]2S( 0.98)2p( 3.22)3p( 0.01)
      C    5      [core]2S( 0.98)2p( 3.21)3p( 0.01)
      C    6      [core]2S( 0.97)2p( 3.21)3p( 0.01)3d( 0.01)
      C    7      [core]2S( 0.91)2p( 3.12)3p( 0.01)
      C    8      [core]2S( 0.97)2p( 3.21)3p( 0.01)3d( 0.01)
      C    9      [core]2S( 0.98)2p( 3.21)3p( 0.01)
      C   10      [core]2S( 0.98)2p( 3.22)3p( 0.01)
      C   11      [core]2S( 0.98)2p( 3.21)3p( 0.01)
      C   12      [core]2S( 0.97)2p( 3.21)3p( 0.01)3d( 0.01)
      H   13            1S( 0.78)
      H   14            1S( 0.78)
      H   15            1S( 0.79)
      H   16            1S( 0.78)
      H   17            1S( 0.78)
      H   18            1S( 0.78)
      H   19            1S( 0.78)
      H   20            1S( 0.79)
      H   21            1S( 0.78)
      H   22            1S( 0.78)


 NATURAL BOND ORBITAL ANALYSIS:

                       Occupancies       Lewis Structure    Low   High
           Occ.    -------------------  -----------------   occ   occ
  Cycle   Thresh.   Lewis   Non-Lewis     CR  BD  3C  LP    (L)   (NL)   Dev
 =============================================================================
   1(1)    1.90    75.51448   6.48552     12  23   0   6     6      6    0.45
   2(2)    1.90    75.51448   6.48552     12  23   0   6     6      6    0.45
   3(1)    1.80    75.51448   6.48552     12  23   0   6     6      6    0.45
   4(2)    1.80    75.51448   6.48552     12  23   0   6     6      6    0.45
   5(1)    1.70    75.51448   6.48552     12  23   0   6     6      6    0.45
   6(2)    1.70    75.51448   6.48552     12  23   0   6     6      6    0.45
   7(1)    1.60    79.44913   2.55087     12  29   0   0     0      6    0.45
   8(2)    1.60    78.81591   3.18409     12  28   0   1     1      6    0.45
   9(3)    1.60    78.81591   3.18409     12  28   0   1     1      6    0.45
  10(4)    1.60    78.18271   3.81729     12  27   0   2     2      6    0.44
  11(5)    1.60    78.81591   3.18409     12  28   0   1     1      6    0.45
  12(6)    1.60    78.18271   3.81729     12  27   0   2     2      6    0.44
  13(7)    1.60    78.81591   3.18409     12  28   0   1     1      6    0.45
  14(8)    1.60    78.18271   3.81729     12  27   0   2     2      6    0.44
  15(9)    1.60    78.81591   3.18409     12  28   0   1     1      6    0.45
  16(1)    1.50    79.44913   2.55087     12  29   0   0     0      6    0.45
  17(2)    1.50    78.81591   3.18409     12  28   0   1     1      6    0.45
  18(3)    1.50    78.81591   3.18409     12  28   0   1     1      6    0.45
  19(4)    1.50    78.18271   3.81729     12  27   0   2     2      6    0.44
  20(5)    1.50    78.81591   3.18409     12  28   0   1     1      6    0.45
  21(6)    1.50    78.18271   3.81729     12  27   0   2     2      6    0.44
  22(7)    1.50    78.81591   3.18409     12  28   0   1     1      6    0.45
  23(8)    1.50    78.18271   3.81729     12  27   0   2     2      6    0.44
  24(9)    1.50    78.81591   3.18409     12  28   0   1     1      6    0.45
  25(1)    1.60    79.44913   2.55087     12  29   0   0     0      6    0.45
 -----------------------------------------------------------------------------

 Structure accepted: RESONANCE keyword permits strongly delocalized structure

 --------------------------------------------------------
   Core                     23.99034 ( 99.960% of  24)
   Valence Lewis            55.45879 ( 95.619% of  58)
  ==================       ============================
   Total Lewis              79.44913 ( 96.889% of  82)
  -----------------------------------------------------
   Valence non-Lewis         2.39806 (  2.924% of  82)
   Rydberg non-Lewis         0.15281 (  0.186% of  82)
  ==================       ============================
   Total non-Lewis           2.55087 (  3.111% of  82)
 --------------------------------------------------------


       (Occupancy)   Bond orbital/ Coefficients/ Hybrids
 ---------------------------------------------------------------------------------
     1. (1.97645) BD ( 1) C   1 - C   2  
                ( 50.84%)   0.7130* C   1 s( 34.16%)p 1.93( 65.82%)d 0.00(  0.02%)
                                                  f 0.00(  0.00%)
                                           -0.0001  0.5844  0.0022  0.0004  0.0002
                                           -0.3977 -0.0072 -0.0046 -0.6704  0.0091
                                           -0.0027  0.2244 -0.0080  0.0016  0.0030
                                            0.0098 -0.0030 -0.0033 -0.0025 -0.0050
                                            0.0008 -0.0041 -0.0059 -0.0057 -0.0021
                                            0.0016  0.0021 -0.0022  0.0027  0.0021
                                            0.0003
                ( 49.16%)   0.7011* C   2 s( 35.46%)p 1.81( 64.35%)d 0.01(  0.18%)
                                                  f 0.00(  0.02%)
                                            0.0001  0.5955 -0.0021 -0.0037 -0.0010
                                            0.4262  0.0222 -0.0062  0.6373  0.0076
                                           -0.0115 -0.2342 -0.0016  0.0044  0.0262
                                            0.0055 -0.0096 -0.0019 -0.0191 -0.0021
                                           -0.0148 -0.0024 -0.0195 -0.0011  0.0068
                                           -0.0025 -0.0054  0.0034 -0.0047 -0.0070
                                            0.0031
     2. (1.97647) BD ( 1) C   1 - C   6  
                ( 50.84%)   0.7130* C   1 s( 34.16%)p 1.93( 65.81%)d 0.00(  0.02%)
                                                  f 0.00(  0.00%)
                                           -0.0001  0.5845  0.0022  0.0004  0.0002
                                           -0.3977 -0.0072 -0.0046  0.6742 -0.0090
                                            0.0027 -0.2124  0.0080 -0.0016 -0.0030
                                           -0.0099  0.0029  0.0032 -0.0025 -0.0051
[...]
 0.09384173,-0.02237209,-0.03615893,-0.03281150,0.02780500,-0.01725652,
 -0.00651562,-0.02364191,0.03025197,0.01576704,-0.03203415,-0.10951497,
 -0.03249884,0.03031818,0.52352487,0.00389848,0.00027677,0.00458916,-0.
 00003823,0.00027954,-0.00080382,-0.00065592,-0.00039416,-0.00006946,-0
 .00000195,-0.00054234,0.00017582,0.00046665,0.00024702,-0.00012792,-0.
 00268716,0.00097333,0.00076346,0.06904721,-0.09560346,-0.13495171,-0.0
 1542567,-0.03281160,-0.01293167,0.01908754,-0.00614478,-0.01201797,-0.
 01715935,0.01477727,0.01861783,-0.02086878,-0.03205875,-0.08660839,0.0
 2307397,0.27241553,0.33303122,0.01079736,-0.01312501,0.00140620,-0.127
 69522,0.12113782,-0.01365509,-0.01038649,0.02854535,-0.00272591,-0.005
 60509,-0.00119080,0.00013263,-0.00080820,-0.00085698,0.00005504,-0.000
 98832,-0.00337099,0.00033442,0.00069551,-0.00021506,0.00001774,0.00007
 102,-0.00003494,-0.00001376,0.00011343,0.00000426,0.00001905,0.0000015
 2,0.00015010,0.00004397,-0.00024409,-0.00001200,-0.00011034,-0.0005491
 9,-0.00030204,0.00032529,0.13456428,0.01518267,-0.01915341,0.00228495,
 0.12011890,-0.26950393,0.02452054,-0.00201996,0.00391774,-0.00015383,-
 0.00049164,0.00198706,0.00060579,-0.00103107,0.00013069,-0.00003808,-0
 .00390040,-0.00321150,0.00082920,0.00200972,0.00063317,-0.00043704,-0.
 00067855,-0.00019925,-0.00032297,0.00043192,-0.00013827,-0.00007003,0.
 00004344,0.00030110,0.00028665,-0.00045700,0.00028136,-0.00005398,0.00
 014888,-0.00005054,-0.00053393,-0.13051719,0.28492199,-0.00269682,0.00
 141113,0.00383284,-0.01347190,0.02561051,-0.04065242,0.00063552,-0.000
 30121,0.00336049,0.00018786,0.00082542,0.00755077,-0.00020206,-0.00014
 298,-0.00064860,0.00054648,0.00066379,0.00626487,0.00114541,-0.0005676
 0,-0.00362331,-0.00082943,-0.00040885,-0.00006539,0.00034405,-0.000395
 46,-0.00012666,0.00000579,0.00035339,0.00023435,-0.00048952,-0.0003842
 5,-0.00037089,0.00080301,0.00092592,0.00034292,0.01320135,-0.02709217,
 0.02937844,-0.00552553,0.00105427,0.00008218,-0.01038360,-0.02879078,0
 .00266729,-0.12933000,-0.12147709,0.01074454,0.01206897,0.01483804,-0.
 00128930,-0.00073138,0.00336944,-0.00022246,-0.00097902,0.00100943,-0.
 00008300,0.00005801,-0.00146302,-0.00001480,-0.00044410,0.00012970,0.0
 0008894,-0.00001510,-0.00005343,-0.00011863,-0.00005198,-0.00000272,0.
 00000634,-0.00000393,0.00004311,-0.00000369,-0.00005572,-0.00002221,-0
 .00007874,0.00101405,0.00040580,-0.00002939,0.13324441,0.00065810,0.00
 197276,0.00047035,0.00200426,0.00372911,-0.00005090,-0.12157207,-0.271
 84862,0.02094988,-0.01604828,-0.01802916,0.00190330,0.00398840,-0.0032
 2114,0.00092949,0.00096940,0.00023295,-0.00008969,0.00018942,0.0000423
 0,-0.00001525,-0.00000665,0.00002537,0.00003567,-0.00000409,0.00000167
 ,0.00000612,-0.00002620,-0.00000457,-0.00000677,0.00000797,0.00000304,
 -0.00000604,-0.00006532,-0.00003166,0.00000046,-0.00038060,0.00065516,
 -0.00041061,0.13091906,0.28660302,-0.00016823,0.00039495,0.00769908,-0
 .00001906,0.00024920,0.00322413,0.01048858,0.02125581,-0.03997151,0.00
 140952,0.00126967,0.00314242,0.00000288,0.00099789,0.00733059,-0.00026
 712,-0.00003462,-0.00072844,-0.00003227,-0.00002382,0.00012019,0.00006
 737,0.00007377,-0.00005536,0.00003582,-0.00003388,0.00000179,-0.000007
 89,0.00000666,0.00000459,0.00000712,-0.00000887,0.00002574,0.00005856,
 -0.00000512,-0.00009323,0.00005588,-0.00049128,-0.00410205,-0.01178439
 ,-0.02324242,0.02842492,0.00068786,0.,0.,0.00058900,0.00317151,-0.0002
 9400,-0.01115033,-0.00281685,0.00023860,-0.34439369,0.,0.00000077,-0.0
 1115032,0.00281685,-0.00023854,0.00058901,-0.00317150,0.00029404,0.000
 05004,0.,0.,-0.00002928,-0.00000874,-0.00001998,0.00000626,0.00001428,
 -0.00001278,-0.00001630,0.,0.,0.00000626,-0.00001428,0.00001278,-0.000
 02927,0.00000874,0.00001999,-0.00063071,-0.00019267,0.00003176,0.00071
 845,0.00026540,-0.00001595,0.36466100,0.,-0.00156735,0.00001046,0.0025
 1407,-0.00441132,0.00099357,0.02813057,0.00506751,-0.00023234,0.,-0.05
 983055,0.00182444,-0.02813057,0.00506750,-0.00023220,-0.00251406,-0.00
 441132,0.00099358,0.,0.00019110,-0.00007081,-0.00004407,-0.00002684,-0
 .00007230,0.00007333,0.00000691,0.00000694,0.,0.00004709,0.00004483,-0
 .00007333,0.00000691,0.00000694,0.00004407,-0.00002684,-0.00007230,0.0
 0136810,0.00005922,0.00000189,-0.00062974,0.00090459,-0.00039818,0.,0.
 05790476,0.,0.00022213,-0.00093345,-0.00027351,0.00084083,0.00745370,-
 0.00212149,-0.00017817,0.00291944,0.00000080,0.00192253,-0.03737588,0.
 00212153,-0.00017819,0.00291943,0.00027354,0.00084085,0.00745369,0.,0.
 00002083,-0.00096144,-0.00028139,-0.00001682,0.00000357,0.00021757,-0.
 00011581,-0.00008780,0.,0.00019140,0.00012837,-0.00021757,-0.00011581,
 -0.00008780,0.00028139,-0.00001682,0.00000357,-0.00013034,0.00003489,0
 .00010800,0.00002798,-0.00044180,-0.00391726,-0.00000085,-0.00250238,0
 .02617904,-0.00552553,-0.00105427,-0.00008213,-0.00097901,-0.00100943,
 0.00008301,-0.00073137,-0.00336943,0.00022249,0.01206897,-0.01483803,0
 .00128926,-0.12933012,0.12147719,-0.01074420,-0.01038362,0.02879078,-0
 .00266724,0.00005801,0.00146302,0.00001480,-0.00005572,0.00002221,0.00
 007874,-0.00000393,-0.00004311,0.00000369,-0.00005198,0.00000272,-0.00
 000634,-0.00001510,0.00005343,0.00011863,-0.00044410,-0.00012970,-0.00
 008894,0.00006173,0.00010836,0.00000148,0.00041547,-0.00080731,0.00005
 890,0.00071845,0.00062974,-0.00002799,0.13324455,-0.00065810,0.0019727
 6,0.00047036,-0.00096940,0.00023295,-0.00008968,-0.00398839,-0.0032211
 5,0.00092950,0.01604830,-0.01802916,0.00190324,0.12157216,-0.27184855,
 0.02094942,-0.00200426,0.00372911,-0.00005089,-0.00018942,0.00004230,-
 0.00001525,0.00006532,-0.00003166,0.00000046,-0.00000797,0.00000304,-0
 .00000604,0.00002620,-0.00000457,-0.00000677,0.00000409,0.00000167,0.0
 0000612,0.00000665,0.00002537,0.00003567,0.00009090,-0.00002594,-0.000
 10231,0.00080731,-0.00099961,0.00007712,-0.00026540,0.00090459,-0.0004
 4180,-0.13091917,0.28660294,0.00016828,0.00039495,0.00769909,0.0002671
 2,-0.00003461,-0.00072844,-0.00000285,0.00099791,0.00733059,-0.0014095
 6,0.00126971,0.00314242,-0.01048824,0.02125536,-0.03997143,0.00001912,
 0.00024908,0.00322414,0.00003227,-0.00002382,0.00012019,-0.00005856,-0
 .00000512,-0.00009323,-0.00000712,-0.00000887,0.00002574,0.00000789,0.
 00000666,0.00000459,-0.00003582,-0.00003388,0.00000179,-0.00006737,0.0
 0007377,-0.00005536,-0.00001286,-0.00010076,-0.00117544,-0.00005890,0.
 00007712,0.00009525,0.00001593,-0.00039818,-0.00391726,0.01178399,-0.0
 2324192,0.02842483,0.01079736,0.01312502,-0.00140622,-0.00098833,0.003
 37099,-0.00033440,-0.00080820,0.00085698,-0.00005504,-0.00560509,0.001
 19081,-0.00013258,-0.01038648,-0.02854536,0.00272595,-0.12769506,-0.12
 113770,0.01365535,0.00069551,0.00021506,-0.00001776,-0.00054919,0.0003
 0205,-0.00032528,-0.00024409,0.00001200,0.00011034,0.00000152,-0.00015
 010,-0.00004397,0.00011342,-0.00000427,-0.00001905,0.00007102,0.000034
 94,0.00001376,0.00052603,0.00081634,-0.00009661,0.00006173,-0.00009090
 ,0.00001285,-0.00063071,-0.00136810,0.00013035,0.00101405,0.00038060,-
 0.00005590,0.13456412,-0.01518266,-0.01915341,0.00228500,0.00390041,-0
 .00321150,0.00082919,0.00103107,0.00013069,-0.00003809,0.00049164,0.00
 198706,0.00060578,0.00201996,0.00391773,-0.00015384,-0.12011878,-0.269
 50401,0.02452088,-0.00200972,0.00063317,-0.00043703,-0.00014888,-0.000
 05054,-0.00053393,0.00045700,0.00028137,-0.00005398,-0.00004344,0.0003
 0110,0.00028665,-0.00043192,-0.00013827,-0.00007003,0.00067855,-0.0001
 9925,-0.00032298,-0.00081634,-0.00106019,0.00006604,-0.00010836,-0.000
 02594,-0.00010075,0.00019267,0.00005922,0.00003489,-0.00040581,0.00065
 516,-0.00049128,0.13051705,0.28492207,0.00269679,0.00141108,0.00383283
 ,-0.00054645,0.00066378,0.00626488,0.00020206,-0.00014298,-0.00064860,
 -0.00018781,0.00082541,0.00755077,-0.00063545,-0.00030109,0.00336048,0
 .01347213,0.02561083,-0.04065249,-0.00114543,-0.00056760,-0.00362331,-
 0.00080301,0.00092592,0.00034293,0.00048951,-0.00038425,-0.00037089,-0
 .00000579,0.00035339,0.00023435,-0.00034405,-0.00039546,-0.00012666,0.
 00082943,-0.00040885,-0.00006539,0.00009661,0.00006603,0.00026426,-0.0
 0000149,-0.00010231,-0.00117544,-0.00003175,0.00000189,0.00010800,0.00
 002937,-0.00041061,-0.00410205,-0.01320167,-0.02709253,0.02937851,0.00
 069551,-0.00017736,-0.00012291,0.00007102,-0.00003714,-0.00000556,0.00
 011343,0.00001322,-0.00001437,0.00000152,0.00015197,0.00003697,-0.0002
 4409,-0.00006556,0.00008956,-0.00054919,-0.00009894,-0.00043272,0.0107
 9737,-0.01066354,-0.00778031,-0.12769504,0.09808110,0.07239457,-0.0103
 8642,0.02335808,0.01663333,-0.00560508,-0.00096499,-0.00071021,-0.0008
 0821,-0.00071464,-0.00047615,-0.00098834,-0.00275217,-0.00197508,0.000
 01441,0.00004260,-0.00004410,0.00001923,0.00000844,0.00001884,0.000014
 57,0.00001443,-0.00000766,0.00000860,-0.00001168,-0.00007258,-0.000994
 42,0.00001525,-0.00096327,0.13456404,0.00231318,-0.00086595,0.00202897
 ,-0.00100235,-0.00048268,0.00008206,0.00054608,-0.00033693,-0.00005137
 ,0.00004051,0.00056155,-0.00009774,-0.00064053,-0.00007146,0.00022686,
 0.00053044,0.00021756,0.00046155,0.01180019,-0.01180646,-0.01131426,0.
 09729029,-0.19058464,-0.11108372,-0.00143162,0.00358143,0.00028143,-0.
 00033188,0.00399769,-0.00265714,-0.00099397,-0.00014254,0.00033025,-0.
 00310462,-0.00019596,-0.00455932,0.00001484,0.00005842,-0.00000581,-0.
 00002211,-0.00000178,-0.00001243,0.00000878,0.00002471,-0.00004848,0.0
 0000599,-0.00000785,0.00002499,0.00046843,0.00039070,-0.00002593,-0.10
 643069,0.19757460,0.00001288,0.00215954,-0.00212419,0.00037904,0.00016
 793,0.00021803,-0.00008200,0.00027406,0.00007200,0.00001671,-0.0001644
 8,-0.00002611,0.00019544,0.00055713,-0.00001807,-0.00062099,-0.0009982
 9,0.00007483,0.00992675,-0.01044037,-0.00351411,0.07172646,-0.11217365
 ,-0.11957241,-0.00156030,0.00042865,0.00369675,-0.00040845,-0.00287676
 ,0.00554014,-0.00034053,0.00043516,-0.00037537,-0.00242345,-0.00439390
 ,0.00324934,0.00005949,0.00008012,-0.00007030,0.00001173,0.00000591,-0
 .00003048,0.00003553,0.00004558,0.00000394,-0.00004436,-0.00001500,0.0
 0000601,-0.00084185,0.00053441,-0.00049001,-0.07669131,0.12419995,0.11
 672653,0.00005801,-0.00127441,-0.00071869,-0.00044410,0.00015679,-0.00
 001217,-0.00001510,-0.00010559,0.00007602,-0.00005198,0.00000081,-0.00
 000685,-0.00000393,0.00003549,0.00002476,-0.00005572,-0.00005860,0.000
 05709,-0.00552554,0.00095409,0.00045602,-0.01038367,-0.02360001,-0.016
 70518,-0.12933012,-0.09983024,-0.07004256,0.01206896,0.01220549,0.0085
 3547,-0.00073137,0.00280678,0.00187739,-0.00097901,0.00083269,0.000576
 59,0.00001923,-0.00001329,-0.00002121,-0.00005093,-0.00000666,0.000000
 14,-0.00000775,0.00000271,-0.00000563,-0.00002989,0.00000904,-0.000004
 76,0.00000860,0.00001700,-0.00004141,0.00101405,0.00033676,0.00022833,
 0.13324461,0.00014791,0.00004485,-0.00002824,0.00002792,0.00005258,0.0
 0002665,0.00001436,-0.00001032,-0.00001311,-0.00002664,-0.00000232,0.0
 0000278,0.00001047,0.00000226,-0.00000751,-0.00002729,-0.00004907,0.00
 002504,0.00048578,0.00377901,-0.00273359,0.00172618,0.00368869,0.00031
 908,-0.10004048,-0.19560456,-0.11080300,-0.01319352,-0.01136245,-0.010
 27754,0.00345550,0.00025133,-0.00501667,0.00070597,-0.00006121,0.00047
 490,0.00001673,-0.00001178,0.00000489,-0.00000570,-0.00000170,-0.00000
 326,-0.00000378,-0.00000045,0.00000281,-0.00000544,0.00000382,-0.00000
 052,0.00004640,-0.00000006,0.00001150,-0.00030165,-0.00092465,0.002245
 06,0.10748741,0.20193096,0.00012265,-0.00001967,0.00011764,-0.00006167
 ,-0.00001146,-0.00008257,-0.00003307,0.00002689,0.00001378,-0.00000627
 ,-0.00001065,0.00000235,-0.00000218,-0.00000469,0.00002652,-0.00008338
 ,0.00003061,-0.00007582,0.00047479,-0.00265819,0.00589284,0.00101867,0
 .00001913,0.00326459,-0.06986839,-0.11110896,-0.11621459,-0.00924482,-
 0.00964400,-0.00352430,0.00199169,-0.00508509,0.00385811,0.00071604,0.
 00041982,-0.00043428,-0.00001209,0.00002323,-0.00002048,-0.00000345,-0
 .00000192,0.00000728,-0.00000346,-0.00000056,-0.00000959,-0.00000864,0
 .00000270,0.00000005,-0.00005701,-0.00002850,-0.00000178,-0.00023871,0
 .00232573,-0.00252224,0.07566403,0.12341439,0.11309598,0.00005004,0.,0
 .,-0.00002927,-0.00001756,0.00001294,0.00000626,0.00000598,0.00001820,
 -0.00001630,0.,0.,0.00000626,-0.00000598,-0.00001820,-0.00002927,0.000
 01756,-0.00001294,0.00068786,0.,0.,0.00058901,0.00259959,0.00184037,-0
 .01115028,-0.00232018,-0.00161499,-0.34439371,-0.00000005,0.00000061,-
 0.01115034,0.00232018,0.00161505,0.00058900,-0.00259961,-0.00184036,0.
 00001456,0.00002537,-0.00002638,-0.00000775,-0.00000500,0.00000110,-0.
 00000934,0.,0.,-0.00000775,0.00000500,-0.00000110,0.00001456,-0.000025
 37,0.00002638,-0.00063071,-0.00015098,-0.00012383,0.00071845,0.0002218
 8,0.00014650,0.36466097,0.,-0.00011867,0.00055737,-0.00017885,-0.00005
 783,0.00003685,0.00017229,-0.00006391,0.00000686,0.,0.00016970,-0.0000
 2097,-0.00017229,-0.00006391,0.00000686,0.00017885,-0.00005783,0.00003
 685,0.,-0.00130818,-0.00022680,0.00204049,-0.00065079,-0.00567264,0.02
 330109,0.00435278,0.00105976,-0.00000005,-0.05259452,-0.01061084,-0.02
 330109,0.00435277,0.00105986,-0.00204051,-0.00065079,-0.00567264,0.000
 00866,0.00001826,-0.00003731,-0.00000047,-0.00000176,0.00000509,0.,0.0
 0000627,-0.00000939,0.00000047,-0.00000176,0.00000509,-0.00000866,0.00
 001826,-0.00003731,0.00111964,0.00008735,-0.00001382,-0.00053137,-0.00
 066457,0.00227610,0.00000006,0.04780635,0.,0.00046574,-0.00065166,0.00
 022166,-0.00001862,0.00003456,-0.00015176,0.00012960,-0.00001698,0.,-0
 .00016754,0.00000577,0.00015176,0.00012960,-0.00001698,-0.00022166,-0.
 00001862,0.00003456,0.,-0.00043844,-0.00119262,0.00149389,-0.00551993,
 0.00369316,0.01590249,0.00100570,0.00363411,0.00000061,-0.01070889,-0.
 04461185,-0.01590243,0.00100569,0.00363417,-0.00149387,-0.00551991,0.0
 0369318,0.00001385,0.00005674,0.00001039,0.00000623,0.00000171,-0.0000
 0828,0.,0.00000414,0.00001537,-0.00000623,0.00000171,-0.00000828,-0.00
 001385,0.00005674,0.00001039,0.00079693,-0.00004681,0.00007988,-0.0003
 3911,0.00231972,-0.00234809,-0.00000067,0.01498876,0.03627743,0.000058
 01,0.00127441,0.00071869,-0.00005572,0.00005860,-0.00005709,-0.0000039
 3,-0.00003549,-0.00002476,-0.00005198,-0.00000081,0.00000685,-0.000015
 10,0.00010559,-0.00007602,-0.00044410,-0.00015679,0.00001217,-0.005525
 54,-0.00095410,-0.00045597,-0.00097902,-0.00083269,-0.00057659,-0.0007
 3138,-0.00280680,-0.00187737,0.01206896,-0.01220553,-0.00853553,-0.129
 32958,0.09982980,0.07004264,-0.01038361,0.02360001,0.01670524,0.000008
 61,-0.00001700,0.00004141,-0.00002989,-0.00000904,0.00000476,-0.000007
 75,-0.00000271,0.00000563,-0.00005093,0.00000666,-0.00000014,0.0000192
 3,0.00001329,0.00002121,0.00006173,0.00009459,0.00005289,0.00041547,-0
 .00066971,-0.00045466,0.00071845,0.00053138,0.00033910,0.13324403,-0.0
 0014791,0.00004485,-0.00002824,0.00002729,-0.00004907,0.00002504,-0.00
 001047,0.00000226,-0.00000751,0.00002664,-0.00000232,0.00000278,-0.000
 01436,-0.00001032,-0.00001311,-0.00002792,0.00005258,0.00002665,-0.000
 48580,0.00377901,-0.00273359,-0.00070596,-0.00006121,0.00047490,-0.003
 45552,0.00025133,-0.00501666,0.01319348,-0.01136245,-0.01027760,0.1000
 4004,-0.19560453,-0.11080339,-0.00172618,0.00368869,0.00031909,-0.0000
 4640,-0.00000006,0.00001150,0.00000544,0.00000382,-0.00000052,0.000003
 78,-0.00000045,0.00000281,0.00000570,-0.00000170,-0.00000326,-0.000016
 73,-0.00001178,0.00000489,0.00007230,-0.00040124,0.00054929,0.00066971
 ,-0.00065911,-0.00051265,-0.00022187,-0.00066457,0.00231972,-0.1074869
 2,0.20193092,-0.00012265,-0.00001967,0.00011764,0.00008338,0.00003061,
 -0.00007582,0.00000218,-0.00000469,0.00002652,0.00000627,-0.00001065,0
 .00000235,0.00003307,0.00002689,0.00001378,0.00006167,-0.00001146,-0.0
 0008257,-0.00047475,-0.00265819,0.00589284,-0.00071604,0.00041983,-0.0
 0043428,-0.00199167,-0.00508508,0.00385813,0.00924475,-0.00964395,-0.0
 0352431,0.06986846,-0.11110935,-0.11621516,-0.00101861,0.00001903,0.00
 326452,0.00005701,-0.00002850,-0.00000178,0.00000864,0.00000270,0.0000
 0005,0.00000346,-0.00000056,-0.00000959,0.00000345,-0.00000192,0.00000
 728,0.00001209,0.00002323,-0.00002048,0.00005658,0.00054774,-0.0008001
 4,0.00045466,-0.00051264,-0.00024525,-0.00014651,0.00227610,-0.0023480
 9,-0.07566413,0.12341481,0.11309660,0.00069551,0.00017737,0.00012290,-
 0.00054919,0.00009894,0.00043273,-0.00024409,0.00006557,-0.00008956,0.
 00000152,-0.00015197,-0.00003697,0.00011343,-0.00001322,0.00001437,0.0
 0007102,0.00003714,0.00000556,0.01079736,0.01066350,0.00778026,-0.0009
 8832,0.00275216,0.00197510,-0.00080820,0.00071465,0.00047615,-0.005605
 07,0.00096497,0.00071025,-0.01038648,-0.02335808,-0.01663327,-0.127695
 59,-0.09808155,-0.07239452,-0.00099442,-0.00001525,0.00096328,0.000008
 61,0.00001168,0.00007258,0.00001456,-0.00001443,0.00000766,0.00001923,
 -0.00000844,-0.00001884,0.00001441,-0.00004260,0.00004410,0.00052603,0
 .00065867,0.00049183,0.00006173,-0.00007230,-0.00005658,-0.00063071,-0
 .00111964,-0.00079692,0.00101405,0.00030166,0.00023869,0.13456462,-0.0
 0231317,-0.00086595,0.00202898,-0.00053043,0.00021756,0.00046155,0.000
 64053,-0.00007146,0.00022686,-0.00004051,0.00056155,-0.00009774,-0.000
 54608,-0.00033693,-0.00005136,0.00100235,-0.00048268,0.00008206,-0.011
 80023,-0.01180646,-0.01131421,0.00310460,-0.00019596,-0.00455933,0.000
 99397,-0.00014254,0.00033025,0.00033187,0.00399769,-0.00265714,0.00143
 161,0.00358142,0.00028142,-0.09729073,-0.19058468,-0.11108334,-0.00046
 843,0.00039070,-0.00002593,-0.00000599,-0.00000785,0.00002499,-0.00000
 878,0.00002471,-0.00004848,0.00002211,-0.00000178,-0.00001243,-0.00001
 484,0.00005842,-0.00000581,-0.00065867,-0.00067189,-0.00060652,-0.0000
 9458,-0.00040124,0.00054774,0.00015098,0.00008735,-0.00004682,-0.00033
 675,-0.00092465,0.00232573,0.10643119,0.19757465,-0.00001289,0.0021595
 4,-0.00212419,0.00062099,-0.00099830,0.00007482,-0.00019544,0.00055713
 ,-0.00001807,-0.00001671,-0.00016448,-0.00002611,0.00008200,0.00027406
 ,0.00007199,-0.00037904,0.00016793,0.00021803,-0.00992681,-0.01044041,
 -0.00351410,0.00242347,-0.00439391,0.00324933,0.00034053,0.00043516,-0
 .00037537,0.00040850,-0.00287677,0.00554013,0.00156036,0.00042875,0.00
 369682,-0.07172640,-0.11217326,-0.11957182,0.00084185,0.00053441,-0.00
 049002,0.00004436,-0.00001500,0.00000601,-0.00003553,0.00004558,0.0000
 0394,-0.00001173,0.00000591,-0.00003048,-0.00005949,0.00008012,-0.0000
 7030,-0.00049183,-0.00060652,-0.00012403,-0.00005290,0.00054929,-0.000
 80014,0.00012384,-0.00001382,0.00007988,-0.00022834,0.00224506,-0.0025
 2224,0.07669121,0.12419953,0.11672591\\-0.00002514,0.,0.00000002,0.000
 00128,-0.00002054,0.00003144,0.00003471,-0.00001196,0.00000397,-0.0000
 8173,0.,-0.00000003,0.00003473,0.00001195,-0.00000393,0.00000127,0.000
 02053,-0.00003151,0.00002523,0.,0.,-0.00000128,0.00000264,0.00003814,-
 0.00003506,0.00000784,0.00000885,0.00008195,0.,0.,-0.00003505,-0.00000
 784,-0.00000885,-0.00000129,-0.00000264,-0.00003814,0.00001410,-0.0000
 2588,-0.00001221,-0.00000159,-0.00002927,-0.00000428,0.00000868,0.,0.0
 0000003,-0.00000159,0.00002928,0.00000425,0.00001410,0.00002589,0.0000
 1225,-0.00001405,0.00002840,0.00000226,0.00000170,0.00002772,0.0000110
 9,-0.00000864,0.,0.,0.00000170,-0.00002772,-0.00001109,-0.00001405,-0.
 00002840,-0.00000226\\\@
 The archive entry for this job was punched.


 ALL OUR THINKING ABOUT NATURE MUST NECESSARILY MOVE IN CIRCLES OR SPIRALS;
 FOR WE CAN ONLY UNDERSTAND NATURE IF WE THINK ABOUT HER, AND WE CAN ONLY
 THINK BECAUSE OUR BRAIN IS BUILT IN ACCORDANCE WITH NATURE'S LAWS.

                                             -- TIMOTHY FERRIS, "GALAXIES"
 Job cpu time:       0 days 12 hours 21 minutes 21.3 seconds.
 Elapsed time:       0 days  0 hours 23 minutes 32.8 seconds.
 File lengths (MBytes):  RWF=    330 Int=      0 D2E=      0 Chk=     16 Scr=      1
 Normal termination of Gaussian 16 at Wed Nov  1 01:26:21 2023.
